 Gaussian 16, Revision C.01,
 Gaussian 16:  ES64L-G16RevC.01  3-Jul-2019

 ---------------------------------------------
 # opt freq wb97xd/Def2TZVPP geom=connectivity
 ---------------------------------------------

 -------------------
 Title Card Required
 -------------------
 Symbolic Z-matrix:
 Charge =  0 Multiplicity = 1

 SCF Done:  E(RwB97XD) =  -688.469731663     A.U. after   14 cycles
 SCF Done:  E(RwB97XD) =  -688.473379200     A.U. after   12 cycles
 SCF Done:  E(RwB97XD) =  -688.474864766     A.U. after   12 cycles
 SCF Done:  E(RwB97XD) =  -688.478397030     A.U. after   12 cycles
 SCF Done:  E(RwB97XD) =  -688.477208469     A.U. after   12 cycles
 SCF Done:  E(RwB97XD) =  -688.480374901     A.U. after   11 cycles
 SCF Done:  E(RwB97XD) =  -688.480221547     A.U. after   11 cycles
 SCF Done:  E(RwB97XD) =  -688.481541982     A.U. after   11 cycles
 SCF Done:  E(RwB97XD) =  -688.481972050     A.U. after   11 cycles
 SCF Done:  E(RwB97XD) =  -688.481813956     A.U. after   11 cycles
 SCF Done:  E(RwB97XD) =  -688.482159682     A.U. after   11 cycles
 SCF Done:  E(RwB97XD) =  -688.482172501     A.U. after   10 cycles
 SCF Done:  E(RwB97XD) =  -688.482176744     A.U. after    9 cycles
 SCF Done:  E(RwB97XD) =  -688.482178391     A.U. after    8 cycles
 SCF Done:  E(RwB97XD) =  -688.482179020     A.U. after    8 cycles
 SCF Done:  E(RwB97XD) =  -688.482179244     A.U. after    7 cycles
 SCF Done:  E(RwB97XD) =  -688.482179405     A.U. after    7 cycles
 SCF Done:  E(RwB97XD) =  -688.482179500     A.U. after    7 cycles
 Optimization completed.
    -- Stationary point found.
 Normal termination of Gaussian 16 at Wed Oct 11 15:23:54 2023.

 ----------------------------------------------------------------------
 #N Geom=AllCheck Guess=TCheck SCRF=Check GenChk RwB97XD/def2TZVPP Freq
 ----------------------------------------------------------------------

 Structure from the checkpoint file:  "MannitolConformerOpt_49.chk"
 -------------------
 Title Card Required
 -------------------
 Charge =  0 Multiplicity = 1

                         Standard orientation:
 ---------------------------------------------------------------------
 Center     Atomic      Atomic             Coordinates (Angstroms)
 Number     Number       Type             X           Y           Z
 ---------------------------------------------------------------------
      1          6           0        0.451284   -0.622927    0.033120
      2          6           0       -0.315829    0.704034   -0.088364
      3          6           0        1.820200   -0.672987   -0.647360
      4          6           0       -1.816938    0.525293    0.132758
      5          1           0       -0.167606    1.118375   -1.088162
      6          1           0       -0.141894   -1.415434   -0.433373
      7          6           0        2.844155    0.372009   -0.193594
      8          1           0        1.663758   -0.536038   -1.720046
      9          6           0       -2.529376   -0.049171   -1.078348
     10          1           0       -2.234577    1.516641    0.337181
     11          1           0        3.801515    0.076485   -0.621518
     12          1           0        2.947150    0.337827    0.897741
     13          1           0       -2.081639   -1.006053   -1.366528
     14          1           0       -2.440911    0.647582   -1.918110
     15          8           0        2.564391    1.671984   -0.651326
     16          1           0        1.847757    2.019072   -0.109704
     17          8           0        2.352143   -1.970772   -0.477188
     18          1           0        2.270347   -2.186883    0.454319
     19          8           0        0.647626   -0.930883    1.406372
     20          1           0       -0.223965   -1.110698    1.772809
     21          8           0        0.202371    1.657346    0.821467
     22          1           0        0.425697    1.172735    1.622996
     23          8           0       -2.021388   -0.313796    1.259748
     24          1           0       -2.953980   -0.538886    1.277840
     25          8           0       -3.882001   -0.224572   -0.696697
     26          1           0       -4.337770   -0.746685   -1.353732
 ---------------------------------------------------------------------

 SCF Done:  E(RwB97XD) =  -688.482179500     A.U. after    1 cycles

 The electronic state is 1-A.
 Alpha  occ. eigenvalues --  -19.28162 -19.27410 -19.26852 -19.26757 -19.24435
 Alpha  occ. eigenvalues --  -19.22857 -10.35485 -10.35399 -10.35286 -10.34749
 Alpha  occ. eigenvalues --  -10.33167 -10.31454  -1.17706  -1.16315  -1.14132
 Alpha  occ. eigenvalues --   -1.13745  -1.12124  -1.10674  -0.90191  -0.85631
 Alpha  occ. eigenvalues --   -0.80451  -0.76474  -0.70904  -0.69528  -0.66784
 Alpha  occ. eigenvalues --   -0.63547  -0.61895  -0.60533  -0.59443  -0.58748
 Alpha  occ. eigenvalues --   -0.58024  -0.54125  -0.53785  -0.53342  -0.51890
 Alpha  occ. eigenvalues --   -0.50289  -0.49140  -0.47511  -0.46837  -0.44846
 Alpha  occ. eigenvalues --   -0.44320  -0.42470  -0.40521  -0.39713  -0.39414
 Alpha  occ. eigenvalues --   -0.38737  -0.38510  -0.36632  -0.33381
 Alpha virt. eigenvalues --    0.08101   0.10648   0.11232   0.12842   0.13736
 Alpha virt. eigenvalues --    0.14504   0.15840   0.17161   0.17991   0.18376
 Alpha virt. eigenvalues --    0.18739   0.20159   0.21293   0.21611   0.22784

 Mulliken charges:
               1
     1  C    0.028053
     2  C    0.140901
     3  C    0.221121
     4  C    0.137545
     5  H    0.073195
     6  H    0.094663
     7  C   -0.025266
     8  H    0.050317
     9  C   -0.040401
    10  H    0.092582
    11  H    0.087028
    12  H    0.072474
    13  H    0.089211
    14  H    0.080885
    15  O   -0.379527
    16  H    0.207799
    17  O   -0.360507
    18  H    0.180363
    19  O   -0.409267
    20  H    0.207336
    21  O   -0.373565
    22  H    0.191703
    23  O   -0.383504
    24  H    0.181502
    25  O   -0.339535
    26  H    0.174896
 Sum of Mulliken charges =  -0.00000

 Dipole moment (field-independent basis, Debye):
    X=             -4.7730    Y=             -1.6558    Z=             -0.2948  Tot=              5.0606
 Quadrupole moment (field-independent basis, Debye-Ang):
   XX=            -72.7726   YY=            -78.6204   ZZ=            -68.1680
   XY=              3.1303   XZ=              9.8905   YZ=             -0.0384

  Exact polarizability:     109.317       0.056      89.175       1.106      -0.849      87.333
 Approx polarizability:     103.882      -0.279     101.588       0.251      -2.076     103.944

                      1                      2                      3
                      A                      A                      A
 Frequencies --     59.1058                80.2759                97.9946
 Red. masses --      5.2237                 4.7550                 4.5422
 Frc consts  --      0.0108                 0.0181                 0.0257
 IR Inten    --      2.5805                 2.3139                 6.7560

                      4                      5                      6
                      A                      A                      A
 Frequencies --    111.5474               175.0448               196.9427
 Red. masses --      4.3365                 3.5028                 4.0325
 Frc consts  --      0.0318                 0.0632                 0.0922
 IR Inten    --      6.9758                 3.7130                 1.0883

                      7                      8                      9
                      A                      A                      A
 Frequencies --    218.3572               236.5552               255.5232
 Red. masses --      4.5668                 4.2826                 1.1404
 Frc consts  --      0.1283                 0.1412                 0.0439
 IR Inten    --      5.3100                10.5571                98.8609

                     10                     11                     12
                      A                      A                      A
 Frequencies --    270.9393               282.0415               313.7688
 Red. masses --      3.8636                 4.8651                 4.5873
 Frc consts  --      0.1671                 0.2280                 0.2661
 IR Inten    --      6.2437                 7.6010                17.5113

                     13                     14                     15
                      A                      A                      A
 Frequencies --    322.3007               368.5079               409.9687
 Red. masses --      3.8116                 2.9787                 3.9332
 Frc consts  --      0.2333                 0.2383                 0.3895
 IR Inten    --     10.9658                 0.9590                 5.7056

                     16                     17                     18
                      A                      A                      A
 Frequencies --    429.1494               440.2323               491.5314
 Red. masses --      1.3669                 1.2413                 1.2597
 Frc consts  --      0.1483                 0.1417                 0.1793
 IR Inten    --     98.4290                91.5888                31.4952

                     19                     20                     21
                      A                      A                      A
 Frequencies --    494.4041               540.4007               611.3450
 Red. masses --      4.1736                 2.8467                 3.0834
 Frc consts  --      0.6011                 0.4898                 0.6790
 IR Inten    --     11.4362                 6.8027                71.8268

                     22                     23                     24
                      A                      A                      A
 Frequencies --    634.1331               671.7909               708.0355
 Red. masses --      1.1473                 1.5524                 1.7047
 Frc consts  --      0.2718                 0.4128                 0.5035
 IR Inten    --    150.2601               124.0550                36.5572

                     25                     26                     27
                      A                      A                      A
 Frequencies --    784.7509               876.9376               892.6138
 Red. masses --      3.2697                 3.6511                 2.7954
 Frc consts  --      1.1864                 1.6543                 1.3122
 IR Inten    --     35.6814                 7.8000                18.2542

                     28                     29                     30
                      A                      A                      A
 Frequencies --    933.4516               988.6600              1026.3953
 Red. masses --      2.5044                 1.9495                 1.8549
 Frc consts  --      1.2857                 1.1227                 1.1513
 IR Inten    --     12.7163                73.4071                12.3992

                     31                     32                     33
                      A                      A                      A
 Frequencies --   1063.1560              1091.5368              1105.5033
 Red. masses --      3.1144                 3.3727                 2.9867
 Frc consts  --      2.0741                 2.3676                 2.1506
 IR Inten    --     55.6375                84.7177               113.7263

                     34                     35                     36
                      A                      A                      A
 Frequencies --   1108.5118              1119.1206              1128.5157
 Red. masses --      2.8891                 4.0353                 3.2952
 Frc consts  --      2.0916                 2.9777                 2.4726
 IR Inten    --     19.7843                43.4188                70.9845

                     37                     38                     39
                      A                      A                      A
 Frequencies --   1148.6489              1172.0963              1213.8263
 Red. masses --      3.1376                 2.8113                 1.0949
 Frc consts  --      2.4390                 2.2755                 0.9505
 IR Inten    --      8.1702                71.7353                15.9674

                     40                     41                     42
                      A                      A                      A
 Frequencies --   1233.6206              1246.0570              1263.0514
 Red. masses --      1.1682                 1.1879                 1.2909
 Frc consts  --      1.0474                 1.0867                 1.2134
 IR Inten    --     49.6388                42.9973                16.7647

                     43                     44                     45
                      A                      A                      A
 Frequencies --   1280.8866              1288.3570              1311.8565
 Red. masses --      1.3289                 1.1393                 1.1861
 Frc consts  --      1.2846                 1.1142                 1.2027
 IR Inten    --     24.6692                 7.0170               101.2613

                     46                     47                     48
                      A                      A                      A
 Frequencies --   1334.6486              1370.0786              1382.5857
 Red. masses --      1.2132                 1.2827                 1.3420
 Frc consts  --      1.2732                 1.4187                 1.5114
 IR Inten    --      0.3684                14.7490                27.8374

                     49                     50                     51
                      A                      A                      A
 Frequencies --   1406.6469              1416.9974              1426.0767
 Red. masses --      1.3709                 1.3530                 1.3736
 Frc consts  --      1.5982                 1.6006                 1.6459
 IR Inten    --     20.2486                14.6568                10.6712

                     52                     53                     54
                      A                      A                      A
 Frequencies --   1433.7606              1448.1952              1451.8006
 Red. masses --      1.3621                 1.2186                 1.4633
 Frc consts  --      1.6497                 1.5058                 1.8172
 IR Inten    --     72.7694                44.8144                 3.4992

                     55                     56                     57
                      A                      A                      A
 Frequencies --   1464.1939              1475.4790              1512.9677
 Red. masses --      1.3647                 1.5937                 1.0815
 Frc consts  --      1.7237                 2.0441                 1.4586
 IR Inten    --     29.8537                 5.0349                 4.8268

                     58                     59                     60
                      A                      A                      A
 Frequencies --   1518.1471              3021.9417              3023.7667
 Red. masses --      1.0873                 1.0687                 1.0570
 Frc consts  --      1.4765                 5.7500                 5.6940
 IR Inten    --      6.5886                35.0415                34.0555

                     61                     62                     63
                      A                      A                      A
 Frequencies --   3042.6486              3050.2355              3074.0710
 Red. masses --      1.0857                 1.0840                 1.0980
 Frc consts  --      5.9217                 5.9420                 6.1134
 IR Inten    --     12.7771                18.3798                39.9056

                     64                     65                     66
                      A                      A                      A
 Frequencies --   3078.0907              3085.7045              3120.0658
 Red. masses --      1.0915                 1.0869                 1.0965
 Frc consts  --      6.0933                 6.0972                 6.2893
 IR Inten    --     18.9389                39.9378                29.1318

                     67                     68                     69
                      A                      A                      A
 Frequencies --   3793.1348              3818.7560              3832.3238
 Red. masses --      1.0659                 1.0651                 1.0652
 Frc consts  --      9.0355                 9.1510                 9.2171
 IR Inten    --    209.9544                59.1257               172.9810

                     70                     71                     72
                      A                      A                      A
 Frequencies --   3873.6129              3873.9049              3943.8453
 Red. masses --      1.0654                 1.0656                 1.0669
 Frc consts  --      9.4189                 9.4221                 9.7770
 IR Inten    --     39.0457                76.0267                62.5764

 - Thermochemistry -
 -------------------
 Temperature   298.150 Kelvin.  Pressure   1.00000 Atm.
 Atom     1 has atomic number  6 and mass  12.00000

 Molecular mass:   182.07904 amu.
 Principal axes and moments of inertia in atomic units:
                           1         2         3
     Eigenvalues --  1194.031013460.386613751.28390
           X            0.99994   0.00291   0.01064
           Y           -0.00295   0.99999   0.00348
           Z           -0.01063  -0.00351   0.99994
 This molecule is an asymmetric top.
 Rotational symmetry number  1.
 Warning -- assumption of classical behavior for rotation
           may cause significant error
 Rotational temperatures (Kelvin)      0.07254     0.02503     0.02309
 Rotational constants (GHZ):           1.51147     0.52154     0.48110
 Zero-point vibrational energy     585997.5 (Joules/Mol)
                                  140.05676 (Kcal/Mol)
 Warning -- explicit consideration of  21 degrees of freedom as
           vibrations may cause significant error
 Vibrational temperatures:     85.04   115.50   140.99   160.49   251.85
          (Kelvin)            283.36   314.17   340.35   367.64   389.82
                              405.79   451.44   463.72   530.20   589.85
                              617.45   633.40   707.20   711.34   777.52
                              879.59   912.38   966.56  1018.71  1129.08
                             1261.72  1284.27  1343.03  1422.46  1476.75
                             1529.64  1570.48  1590.57  1594.90  1610.16
                             1623.68  1652.65  1686.39  1746.43  1774.90
                             1792.80  1817.25  1842.91  1853.66  1887.47
                             1920.26  1971.24  1989.23  2023.85  2038.74
                             2051.81  2062.86  2083.63  2088.82  2106.65
                             2122.89  2176.82  2184.28  4347.90  4350.53
                             4377.69  4388.61  4422.90  4428.69  4439.64
                             4489.08  5457.47  5494.34  5513.86  5573.27
                             5573.69  5674.31

 Zero-point correction=                           0.223195 (Hartree/Particle)
 Thermal correction to Energy=                    0.236510
 Thermal correction to Enthalpy=                  0.237454
 Thermal correction to Gibbs Free Energy=         0.184089
 Sum of electronic and zero-point Energies=           -688.258985
 Sum of electronic and thermal Energies=              -688.245669
 Sum of electronic and thermal Enthalpies=            -688.244725
 Sum of electronic and thermal Free Energies=         -688.298091

                     E (Thermal)             CV                S
                      KCal/Mol        Cal/Mol-Kelvin    Cal/Mol-Kelvin
 Total                  148.412             50.170            112.317
 Electronic               0.000              0.000              0.000
 Translational            0.889              2.981             41.504
 Rotational               0.889              2.981             31.117
 Vibrational            146.635             44.209             39.696
 Vibration     1          0.596              1.974              4.487
 Vibration     2          0.600              1.963              3.884
 Vibration     3          0.603              1.951              3.494
 Vibration     4          0.607              1.940              3.242
 Vibration     5          0.627              1.873              2.381
 Vibration     6          0.636              1.844              2.161
 Vibration     7          0.646              1.813              1.973
 Vibration     8          0.655              1.785              1.829
 Vibration     9          0.666              1.753              1.692
 Vibration    10          0.675              1.727              1.590
 Vibration    11          0.681              1.707              1.521
 Vibration    12          0.702              1.647              1.342
 Vibration    13          0.707              1.631              1.298
 Vibration    14          0.741              1.537              1.086
 Vibration    15          0.774              1.449              0.927
 Vibration    16          0.790              1.407              0.861
 Vibration    17          0.800              1.382              0.826
 Vibration    18          0.847              1.269              0.680
 Vibration    19          0.850              1.262              0.672
 Vibration    20          0.895              1.161              0.564
 Vibration    21          0.970              1.008              0.431

 Optimization completed.
    -- Stationary point found.
 Normal termination of Gaussian 16 at Wed Oct 11 16:01:19 2023.
