 Gaussian 16, Revision C.01,
 Gaussian 16:  ES64L-G16RevC.01  3-Jul-2019

 ---------------------------------------------
 # opt freq wb97xd/Def2TZVPP geom=connectivity
 ---------------------------------------------

 -------------------
 Title Card Required
 -------------------
 Symbolic Z-matrix:
 Charge =  0 Multiplicity = 1

 SCF Done:  E(RwB97XD) =  -688.472793294     A.U. after   14 cycles
 SCF Done:  E(RwB97XD) =  -688.479333626     A.U. after   12 cycles
 SCF Done:  E(RwB97XD) =  -688.480322265     A.U. after   12 cycles
 SCF Done:  E(RwB97XD) =  -688.481378804     A.U. after   11 cycles
 SCF Done:  E(RwB97XD) =  -688.481671784     A.U. after   11 cycles
 SCF Done:  E(RwB97XD) =  -688.481741860     A.U. after   11 cycles
 SCF Done:  E(RwB97XD) =  -688.481861362     A.U. after   10 cycles
 SCF Done:  E(RwB97XD) =  -688.481912482     A.U. after   10 cycles
 SCF Done:  E(RwB97XD) =  -688.481949137     A.U. after   10 cycles
 SCF Done:  E(RwB97XD) =  -688.481965692     A.U. after    9 cycles
 SCF Done:  E(RwB97XD) =  -688.481970389     A.U. after    8 cycles
 SCF Done:  E(RwB97XD) =  -688.481971354     A.U. after    8 cycles
 SCF Done:  E(RwB97XD) =  -688.481971683     A.U. after    7 cycles
 SCF Done:  E(RwB97XD) =  -688.481971753     A.U. after    7 cycles
 Optimization completed.
    -- Stationary point found.
 Normal termination of Gaussian 16 at Wed Oct 11 14:47:24 2023.

 ----------------------------------------------------------------------
 #N Geom=AllCheck Guess=TCheck SCRF=Check GenChk RwB97XD/def2TZVPP Freq
 ----------------------------------------------------------------------

 Structure from the checkpoint file:  "MannitolConformerOpt_45.chk"
 -------------------
 Title Card Required
 -------------------
 Charge =  0 Multiplicity = 1

                         Standard orientation:
 ---------------------------------------------------------------------
 Center     Atomic      Atomic             Coordinates (Angstroms)
 Number     Number       Type             X           Y           Z
 ---------------------------------------------------------------------
      1          6           0       -0.528224    0.094441   -0.612193
      2          6           0        0.599624    0.719339    0.210059
      3          6           0       -1.462010   -0.838007    0.164840
      4          6           0        1.556726   -0.259557    0.899892
      5          1           0        0.160183    1.356752    0.980392
      6          1           0       -0.087793   -0.498609   -1.422759
      7          6           0       -2.370588   -0.105799    1.154624
      8          1           0       -0.842268   -1.543004    0.724416
      9          6           0        2.154921   -1.305314   -0.033720
     10          1           0        1.012763   -0.784304    1.689804
     11          1           0       -1.782342    0.564678    1.792077
     12          1           0       -2.851944   -0.840698    1.799150
     13          1           0        1.374545   -1.915250   -0.488700
     14          1           0        2.802155   -1.966624    0.547321
     15          8           0       -3.405739    0.583575    0.491735
     16          1           0       -2.982639    1.198122   -0.116637
     17          8           0       -2.236097   -1.609813   -0.720544
     18          1           0       -3.027307   -1.099035   -0.913115
     19          8           0       -1.299816    1.143886   -1.177804
     20          1           0       -0.681300    1.803564   -1.500733
     21          8           0        1.331980    1.612243   -0.626258
     22          1           0        1.863986    1.061109   -1.214525
     23          8           0        2.598159    0.467834    1.521721
     24          1           0        2.676446    1.304292    1.055967
     25          8           0        2.880961   -0.708577   -1.100539
     26          1           0        3.707245   -0.384794   -0.740156
 ---------------------------------------------------------------------

 SCF Done:  E(RwB97XD) =  -688.481971753     A.U. after    1 cycles

 The electronic state is 1-A.
 Alpha  occ. eigenvalues --  -19.28154 -19.27618 -19.26865 -19.26517 -19.24798
 Alpha  occ. eigenvalues --  -19.24736 -10.35694 -10.35542 -10.34943 -10.34895
 Alpha  occ. eigenvalues --  -10.34474 -10.33464  -1.17913  -1.16089  -1.14789
 Alpha  occ. eigenvalues --   -1.13780  -1.12755  -1.11583  -0.90562  -0.85727
 Alpha  occ. eigenvalues --   -0.81118  -0.77193  -0.72762  -0.69600  -0.65738
 Alpha  occ. eigenvalues --   -0.64442  -0.62276  -0.61491  -0.59687  -0.57804
 Alpha  occ. eigenvalues --   -0.56736  -0.56207  -0.54623  -0.53999  -0.52127
 Alpha  occ. eigenvalues --   -0.50696  -0.49999  -0.47735  -0.47250  -0.46079
 Alpha  occ. eigenvalues --   -0.43691  -0.43508  -0.42200  -0.41218  -0.40468
 Alpha  occ. eigenvalues --   -0.37726  -0.37421  -0.36610  -0.35417
 Alpha virt. eigenvalues --    0.08387   0.10441   0.11516   0.12528   0.13774
 Alpha virt. eigenvalues --    0.14507   0.15327   0.15956   0.17613   0.18411
 Alpha virt. eigenvalues --    0.18456   0.19445   0.20114   0.21807   0.22002

 Mulliken charges:
               1
     1  C    0.048039
     2  C    0.105637
     3  C    0.146806
     4  C    0.115418
     5  H    0.107729
     6  H    0.104003
     7  C    0.006845
     8  H    0.066924
     9  C    0.015880
    10  H    0.057577
    11  H    0.067571
    12  H    0.088965
    13  H    0.080002
    14  H    0.100507
    15  O   -0.375657
    16  H    0.204121
    17  O   -0.364306
    18  H    0.189567
    19  O   -0.374115
    20  H    0.183614
    21  O   -0.419025
    22  H    0.203124
    23  O   -0.374087
    24  H    0.193688
    25  O   -0.353721
    26  H    0.174895
 Sum of Mulliken charges =  -0.00000

 Dipole moment (field-independent basis, Debye):
    X=              2.9184    Y=              0.3996    Z=              0.3418  Tot=              2.9654
 Quadrupole moment (field-independent basis, Debye-Ang):
   XX=            -77.5174   YY=            -73.5284   ZZ=            -75.1669
   XY=             -1.3672   XZ=             -2.2528   YZ=             -4.8574

  Exact polarizability:     107.182      -0.022      89.613      -0.138      -1.734      86.873
 Approx polarizability:     106.222       1.214     103.002       0.920      -2.497     100.656

                      1                      2                      3
                      A                      A                      A
 Frequencies --     37.5283                63.8519                91.9323
 Red. masses --      5.4650                 5.5299                 5.3657
 Frc consts  --      0.0045                 0.0133                 0.0267
 IR Inten    --      0.6161                 1.3085                 9.1920

                      4                      5                      6
                      A                      A                      A
 Frequencies --    140.1652               158.9336               181.9272
 Red. masses --      5.5684                 4.0549                 4.0833
 Frc consts  --      0.0645                 0.0603                 0.0796
 IR Inten    --      2.5073                 9.4669                22.8364

                      7                      8                      9
                      A                      A                      A
 Frequencies --    228.8346               243.6498               268.4440
 Red. masses --      4.4026                 5.0180                 4.9888
 Frc consts  --      0.1358                 0.1755                 0.2118
 IR Inten    --      1.8117                 5.1523                 7.9114

                     10                     11                     12
                      A                      A                      A
 Frequencies --    308.2121               323.4206               341.3744
 Red. masses --      3.0877                 3.4906                 2.3855
 Frc consts  --      0.1728                 0.2151                 0.1638
 IR Inten    --     17.1112                33.1323                62.2768

                     13                     14                     15
                      A                      A                      A
 Frequencies --    342.6170               382.1498               412.7431
 Red. masses --      3.0656                 1.8441                 1.3737
 Frc consts  --      0.2120                 0.1587                 0.1379
 IR Inten    --     13.4183               101.4161                64.1401

                     16                     17                     18
                      A                      A                      A
 Frequencies --    426.8810               432.1737               481.4664
 Red. masses --      2.9161                 1.1465                 1.2546
 Frc consts  --      0.3131                 0.1262                 0.1714
 IR Inten    --      7.6218                38.5476                58.6685

                     19                     20                     21
                      A                      A                      A
 Frequencies --    494.1324               552.1245               589.8249
 Red. masses --      2.4309                 2.8870                 3.2665
 Frc consts  --      0.3497                 0.5185                 0.6695
 IR Inten    --      6.7319                24.4150                10.7392

                     22                     23                     24
                      A                      A                      A
 Frequencies --    638.5807               720.7442               797.6802
 Red. masses --      1.1394                 1.1129                 3.8647
 Frc consts  --      0.2738                 0.3406                 1.4489
 IR Inten    --    155.7725               113.4053                21.2993

                     25                     26                     27
                      A                      A                      A
 Frequencies --    808.3119               837.4841               846.8110
 Red. masses --      3.9576                 3.2124                 3.0436
 Frc consts  --      1.5235                 1.3275                 1.2859
 IR Inten    --     13.4756                 4.9646                41.1447

                     28                     29                     30
                      A                      A                      A
 Frequencies --    955.4213               975.4314               984.8828
 Red. masses --      2.3247                 1.8672                 2.1106
 Frc consts  --      1.2503                 1.0467                 1.2062
 IR Inten    --      1.7000                13.2566                27.2153

                     31                     32                     33
                      A                      A                      A
 Frequencies --    994.8471              1070.1403              1102.1093
 Red. masses --      2.4841                 4.4310                 3.1621
 Frc consts  --      1.4485                 2.9898                 2.2629
 IR Inten    --     10.2024                92.1207                76.6257

                     34                     35                     36
                      A                      A                      A
 Frequencies --   1110.0457              1125.6440              1139.6141
 Red. masses --      2.7381                 2.8740                 3.2555
 Frc consts  --      1.9878                 2.1456                 2.4910
 IR Inten    --    213.6749                55.5370                16.9568

                     37                     38                     39
                      A                      A                      A
 Frequencies --   1148.1072              1166.5559              1216.6845
 Red. masses --      2.4990                 2.7719                 1.1085
 Frc consts  --      1.9408                 2.2225                 0.9668
 IR Inten    --     72.7439                30.6832                27.9256

                     40                     41                     42
                      A                      A                      A
 Frequencies --   1228.7732              1253.7529              1281.1272
 Red. masses --      1.1221                 1.1981                 1.3455
 Frc consts  --      0.9982                 1.1096                 1.3011
 IR Inten    --     66.6543                21.2354                 6.3322

                     43                     44                     45
                      A                      A                      A
 Frequencies --   1293.2653              1306.7533              1314.5375
 Red. masses --      1.3231                 1.3554                 1.4630
 Frc consts  --      1.3038                 1.3637                 1.4895
 IR Inten    --     21.3054                56.8150                12.3444

                     46                     47                     48
                      A                      A                      A
 Frequencies --   1384.1530              1389.6928              1393.8012
 Red. masses --      1.3325                 1.4399                 1.3281
 Frc consts  --      1.5041                 1.6384                 1.5202
 IR Inten    --      9.2928                 2.6392                 3.4290

                     49                     50                     51
                      A                      A                      A
 Frequencies --   1399.9929              1422.8099              1423.1186
 Red. masses --      1.1986                 1.2706                 1.3039
 Frc consts  --      1.3841                 1.5155                 1.5559
 IR Inten    --     16.4811                45.4613                11.6610

                     52                     53                     54
                      A                      A                      A
 Frequencies --   1430.0634              1442.7472              1450.1856
 Red. masses --      1.3476                 1.4355                 1.4065
 Frc consts  --      1.6238                 1.7605                 1.7428
 IR Inten    --     11.9573                22.0646                80.9852

                     55                     56                     57
                      A                      A                      A
 Frequencies --   1465.9751              1472.8178              1512.4126
 Red. masses --      1.2671                 1.2389                 1.0832
 Frc consts  --      1.6044                 1.5833                 1.4598
 IR Inten    --     54.7330                45.9695                 7.7365

                     58                     59                     60
                      A                      A                      A
 Frequencies --   1512.7959              3023.6182              3025.6878
 Red. masses --      1.0841                 1.0693                 1.0834
 Frc consts  --      1.4618                 5.7596                 5.8435
 IR Inten    --      9.5951                43.3348                23.4536

                     61                     62                     63
                      A                      A                      A
 Frequencies --   3057.2090              3067.5171              3079.6602
 Red. masses --      1.0722                 1.0774                 1.0845
 Frc consts  --      5.9047                 5.9733                 6.0604
 IR Inten    --     21.2857                33.6759                42.1541

                     64                     65                     66
                      A                      A                      A
 Frequencies --   3086.6023              3117.2209              3127.0870
 Red. masses --      1.0857                 1.0953                 1.1024
 Frc consts  --      6.0944                 6.2710                 6.3516
 IR Inten    --     33.6038                27.5515                18.9058

                     67                     68                     69
                      A                      A                      A
 Frequencies --   3766.2534              3819.3719              3844.5184
 Red. masses --      1.0655                 1.0654                 1.0653
 Frc consts  --      8.9045                 9.1569                 9.2770
 IR Inten    --    146.6702               124.7586                78.1721

                     70                     71                     72
                      A                      A                      A
 Frequencies --   3852.8206              3863.3653              3902.5550
 Red. masses --      1.0657                 1.0653                 1.0660
 Frc consts  --      9.3210                 9.3685                 9.5651
 IR Inten    --     42.7561                72.5938                50.4285

 - Thermochemistry -
 -------------------
 Temperature   298.150 Kelvin.  Pressure   1.00000 Atm.
 Atom     1 has atomic number  6 and mass  12.00000

 Molecular mass:   182.07904 amu.
 Principal axes and moments of inertia in atomic units:
                           1         2         3
     Eigenvalues --  1169.688623432.106953547.42987
           X            0.99997  -0.00584  -0.00570
           Y            0.00538   0.99699  -0.07737
           Z            0.00614   0.07734   0.99699
 This molecule is an asymmetric top.
 Rotational symmetry number  1.
 Warning -- assumption of classical behavior for rotation
           may cause significant error
 Rotational temperatures (Kelvin)      0.07405     0.02524     0.02442
 Rotational constants (GHZ):           1.54292     0.52584     0.50875
 Zero-point vibrational energy     587089.8 (Joules/Mol)
                                  140.31782 (Kcal/Mol)
 Warning -- explicit consideration of  21 degrees of freedom as
           vibrations may cause significant error
 Vibrational temperatures:     53.99    91.87   132.27   201.67   228.67
          (Kelvin)            261.75   329.24   350.56   386.23   443.45
                              465.33   491.16   492.95   549.83   593.85
                              614.19   621.80   692.72   710.95   794.38
                              848.63   918.78  1036.99  1147.68  1162.98
                             1204.95  1218.37  1374.64  1403.43  1417.03
                             1431.36  1539.69  1585.69  1597.11  1619.55
                             1639.65  1651.87  1678.41  1750.54  1767.93
                             1803.87  1843.26  1860.72  1880.13  1891.33
                             1991.49  1999.46  2005.37  2014.28  2047.11
                             2047.55  2057.54  2075.79  2086.49  2109.21
                             2119.06  2176.02  2176.58  4350.31  4353.29
                             4398.64  4413.47  4430.94  4440.93  4484.99
                             4499.18  5418.80  5495.22  5531.40  5543.35
                             5558.52  5614.91

 Zero-point correction=                           0.223611 (Hartree/Particle)
 Thermal correction to Energy=                    0.236791
 Thermal correction to Enthalpy=                  0.237735
 Thermal correction to Gibbs Free Energy=         0.184233
 Sum of electronic and zero-point Energies=           -688.258361
 Sum of electronic and thermal Energies=              -688.245181
 Sum of electronic and thermal Enthalpies=            -688.244237
 Sum of electronic and thermal Free Energies=         -688.297739

                     E (Thermal)             CV                S
                      KCal/Mol        Cal/Mol-Kelvin    Cal/Mol-Kelvin
 Total                  148.588             49.826            112.604
 Electronic               0.000              0.000              0.000
 Translational            0.889              2.981             41.504
 Rotational               0.889              2.981             31.033
 Vibrational            146.811             43.864             40.067
 Vibration     1          0.594              1.982              5.385
 Vibration     2          0.597              1.972              4.334
 Vibration     3          0.602              1.955              3.619
 Vibration     4          0.615              1.913              2.802
 Vibration     5          0.621              1.893              2.562
 Vibration     6          0.630              1.864              2.309
 Vibration     7          0.652              1.797              1.888
 Vibration     8          0.659              1.773              1.776
 Vibration     9          0.673              1.731              1.606
 Vibration    10          0.698              1.658              1.372
 Vibration    11          0.708              1.629              1.293
 Vibration    12          0.721              1.593              1.206
 Vibration    13          0.722              1.590              1.200
 Vibration    14          0.752              1.508              1.031
 Vibration    15          0.777              1.443              0.917
 Vibration    16          0.789              1.412              0.869
 Vibration    17          0.793              1.400              0.852
 Vibration    18          0.838              1.291              0.706
 Vibration    19          0.850              1.263              0.673
 Vibration    20          0.907              1.135              0.540
 Vibration    21          0.947              1.053              0.467

                           ! Non-Optimized Parameters !
 Normal termination of Gaussian 16 at Wed Oct 11 15:29:56 2023.
