 Gaussian 16, Revision C.01,
 Gaussian 16:  ES64L-G16RevC.01  3-Jul-2019

 ---------------------------------------------
 # opt freq wb97xd/Def2TZVPP geom=connectivity
 ---------------------------------------------

 -------------------
 Title Card Required
 -------------------
 Symbolic Z-matrix:
 Charge =  0 Multiplicity = 1

 SCF Done:  E(RwB97XD) =  -688.469963360     A.U. after   14 cycles
 SCF Done:  E(RwB97XD) =  -688.478303281     A.U. after   11 cycles
 SCF Done:  E(RwB97XD) =  -688.479074241     A.U. after   11 cycles
 SCF Done:  E(RwB97XD) =  -688.479144664     A.U. after   11 cycles
 SCF Done:  E(RwB97XD) =  -688.479264527     A.U. after   11 cycles
 SCF Done:  E(RwB97XD) =  -688.479330010     A.U. after   10 cycles
 SCF Done:  E(RwB97XD) =  -688.479350994     A.U. after   10 cycles
 SCF Done:  E(RwB97XD) =  -688.479358859     A.U. after    9 cycles
 SCF Done:  E(RwB97XD) =  -688.479363754     A.U. after    8 cycles
 SCF Done:  E(RwB97XD) =  -688.479367916     A.U. after    8 cycles
 SCF Done:  E(RwB97XD) =  -688.479368741     A.U. after    8 cycles
 SCF Done:  E(RwB97XD) =  -688.479369373     A.U. after    8 cycles
 SCF Done:  E(RwB97XD) =  -688.479369728     A.U. after    7 cycles
 SCF Done:  E(RwB97XD) =  -688.479369777     A.U. after    6 cycles
 Optimization completed.
    -- Stationary point found.
 Normal termination of Gaussian 16 at Wed Oct 11 14:31:40 2023.

 ----------------------------------------------------------------------
 #N Geom=AllCheck Guess=TCheck SCRF=Check GenChk RwB97XD/def2TZVPP Freq
 ----------------------------------------------------------------------

 Structure from the checkpoint file:  "MannitolConformerOpt_43.chk"
 -------------------
 Title Card Required
 -------------------
 Charge =  0 Multiplicity = 1

                         Standard orientation:
 ---------------------------------------------------------------------
 Center     Atomic      Atomic             Coordinates (Angstroms)
 Number     Number       Type             X           Y           Z
 ---------------------------------------------------------------------
      1          6           0        0.538408   -0.337847   -0.123457
      2          6           0       -0.537585    0.710105    0.161152
      3          6           0        1.939820    0.248415    0.049763
      4          6           0       -1.892566    0.406170   -0.473844
      5          1           0       -0.199663    1.666228   -0.246890
      6          1           0        0.447208   -0.664722   -1.163607
      7          6           0        3.014895   -0.803795   -0.140897
      8          1           0        2.030313    0.659938    1.063584
      9          6           0       -2.486876   -0.955957   -0.134435
     10          1           0       -1.771793    0.479904   -1.564290
     11          1           0        2.887882   -1.274314   -1.123039
     12          1           0        2.930677   -1.568871    0.632750
     13          1           0       -2.512675   -1.091567    0.945595
     14          1           0       -1.889994   -1.762334   -0.562305
     15          8           0        4.258223   -0.121543   -0.067183
     16          1           0        4.963144   -0.720379   -0.303586
     17          8           0        2.085954    1.273272   -0.910079
     18          1           0        3.018340    1.497144   -0.936520
     19          8           0        0.362686   -1.473365    0.693547
     20          1           0        0.068195   -1.144099    1.548032
     21          8           0       -0.657343    0.798378    1.569662
     22          1           0       -1.453736    1.305002    1.745590
     23          8           0       -2.767321    1.422513   -0.019284
     24          1           0       -3.660693    1.084208   -0.124490
     25          8           0       -3.839517   -1.013782   -0.569704
     26          1           0       -3.855244   -1.152473   -1.516189
 ---------------------------------------------------------------------

 SCF Done:  E(RwB97XD) =  -688.479369777     A.U. after    1 cycles

 The electronic state is 1-A.
 Alpha  occ. eigenvalues --  -19.26743 -19.26046 -19.25691 -19.25635 -19.25081
 Alpha  occ. eigenvalues --  -19.24543 -10.34011 -10.33915 -10.33606 -10.33401
 Alpha  occ. eigenvalues --  -10.33011 -10.32903  -1.16298  -1.15007  -1.14357
 Alpha  occ. eigenvalues --   -1.12848  -1.11772  -1.11425  -0.88542  -0.85538
 Alpha  occ. eigenvalues --   -0.80730  -0.75487  -0.70021  -0.69324  -0.63667
 Alpha  occ. eigenvalues --   -0.62655  -0.61555  -0.60393  -0.59124  -0.57468
 Alpha  occ. eigenvalues --   -0.56785  -0.55978  -0.53885  -0.52157  -0.51155
 Alpha  occ. eigenvalues --   -0.50260  -0.47595  -0.45721  -0.44971  -0.44405
 Alpha  occ. eigenvalues --   -0.43628  -0.43192  -0.41955  -0.40096  -0.37788
 Alpha  occ. eigenvalues --   -0.37133  -0.36700  -0.35697  -0.35180
 Alpha virt. eigenvalues --    0.09266   0.10133   0.11545   0.12798   0.14285
 Alpha virt. eigenvalues --    0.15402   0.16629   0.16764   0.18801   0.19374
 Alpha virt. eigenvalues --    0.19842   0.20421   0.21399   0.21644   0.22487

 Mulliken charges:
               1
     1  C    0.148040
     2  C    0.106442
     3  C    0.124948
     4  C    0.088927
     5  H    0.106443
     6  H    0.065884
     7  C   -0.019410
     8  H    0.069239
     9  C    0.031071
    10  H    0.050995
    11  H    0.076419
    12  H    0.088616
    13  H    0.074994
    14  H    0.087502
    15  O   -0.339860
    16  H    0.167486
    17  O   -0.358531
    18  H    0.183772
    19  O   -0.389389
    20  H    0.194289
    21  O   -0.389236
    22  H    0.191751
    23  O   -0.377727
    24  H    0.195033
    25  O   -0.351143
    26  H    0.173442
 Sum of Mulliken charges =   0.00000

 Dipole moment (field-independent basis, Debye):
    X=              0.5661    Y=             -1.6515    Z=             -1.6087  Tot=              2.3740
 Quadrupole moment (field-independent basis, Debye-Ang):
   XX=            -62.9356   YY=            -76.1137   ZZ=            -68.1247
   XY=             -4.6705   XZ=              1.4129   YZ=              3.3870

  Exact polarizability:     113.783      -1.049      88.450       0.012       0.279      85.453
 Approx polarizability:     105.561      -0.913     100.073      -0.926       0.259     102.927

                      1                      2                      3
                      A                      A                      A
 Frequencies --     48.9960                61.5631                79.4805
 Red. masses --      5.7985                 4.7833                 5.9554
 Frc consts  --      0.0082                 0.0107                 0.0222
 IR Inten    --      0.5716                 3.0488                 1.1369

                      4                      5                      6
                      A                      A                      A
 Frequencies --    124.4591               133.6164               146.8262
 Red. masses --      3.3515                 2.9662                 4.1830
 Frc consts  --      0.0306                 0.0312                 0.0531
 IR Inten    --      5.9818                 7.7248                 3.7072

                      7                      8                      9
                      A                      A                      A
 Frequencies --    189.5668               232.1535               246.7429
 Red. masses --      6.0603                 1.1959                 4.8812
 Frc consts  --      0.1283                 0.0380                 0.1751
 IR Inten    --      5.8469                89.1274                 3.5984

                     10                     11                     12
                      A                      A                      A
 Frequencies --    261.1452               293.0418               304.9559
 Red. masses --      3.5011                 5.0708                 2.1984
 Frc consts  --      0.1407                 0.2566                 0.1205
 IR Inten    --     24.7230                 0.4636                34.9520

                     13                     14                     15
                      A                      A                      A
 Frequencies --    317.6765               321.0303               348.0282
 Red. masses --      1.4713                 4.9873                 4.8482
 Frc consts  --      0.0875                 0.3028                 0.3460
 IR Inten    --     60.3902                 8.3083                 3.8066

                     16                     17                     18
                      A                      A                      A
 Frequencies --    412.9929               454.6552               464.5903
 Red. masses --      1.1828                 1.2381                 2.7027
 Frc consts  --      0.1189                 0.1508                 0.3437
 IR Inten    --     70.4108               117.3763                17.5243

                     19                     20                     21
                      A                      A                      A
 Frequencies --    478.9695               496.8888               529.3607
 Red. masses --      2.9966                 1.1664                 1.6856
 Frc consts  --      0.4050                 0.1697                 0.2783
 IR Inten    --     27.8801                95.6478                32.3235

                     22                     23                     24
                      A                      A                      A
 Frequencies --    557.7632               604.8889               701.6540
 Red. masses --      1.4987                 3.3372                 3.4099
 Frc consts  --      0.2747                 0.7194                 0.9891
 IR Inten    --    119.2496                49.5915                48.9757

                     25                     26                     27
                      A                      A                      A
 Frequencies --    756.8657               865.2037               911.8093
 Red. masses --      4.7473                 3.2445                 2.2798
 Frc consts  --      1.6023                 1.4310                 1.1168
 IR Inten    --     26.6616                 9.9645                 8.4939

                     28                     29                     30
                      A                      A                      A
 Frequencies --    923.2226               986.4156              1051.1381
 Red. masses --      2.6256                 2.1448                 2.9397
 Frc consts  --      1.3185                 1.2296                 1.9137
 IR Inten    --     43.7893                10.3437                51.0786

                     31                     32                     33
                      A                      A                      A
 Frequencies --   1061.3206              1089.4721              1094.7626
 Red. masses --      2.5117                 3.5891                 2.2068
 Frc consts  --      1.6669                 2.5100                 1.5583
 IR Inten    --     11.8159               126.8307                 1.5704

                     34                     35                     36
                      A                      A                      A
 Frequencies --   1102.6780              1114.8117              1142.3851
 Red. masses --      3.0808                 3.0254                 2.9406
 Frc consts  --      2.2070                 2.2153                 2.2610
 IR Inten    --     35.5939               157.0739                72.1176

                     37                     38                     39
                      A                      A                      A
 Frequencies --   1148.0454              1159.8159              1204.5608
 Red. masses --      3.2539                 2.5307                 1.3022
 Frc consts  --      2.5268                 2.0057                 1.1132
 IR Inten    --     40.4273                48.3655                 8.7066

                     40                     41                     42
                      A                      A                      A
 Frequencies --   1224.0975              1235.7904              1256.0372
 Red. masses --      1.1812                 1.2192                 1.2161
 Frc consts  --      1.0428                 1.0971                 1.1304
 IR Inten    --     35.9165                39.1540                 4.5603

                     43                     44                     45
                      A                      A                      A
 Frequencies --   1281.7692              1290.4548              1329.8307
 Red. masses --      1.0915                 1.1520                 1.2728
 Frc consts  --      1.0566                 1.1302                 1.3262
 IR Inten    --      6.5801                44.7534                20.2538

                     46                     47                     48
                      A                      A                      A
 Frequencies --   1350.8949              1367.4650              1380.2526
 Red. masses --      1.3061                 1.2715                 1.2434
 Frc consts  --      1.4043                 1.4009                 1.3957
 IR Inten    --     65.3502                32.5863                11.1340

                     49                     50                     51
                      A                      A                      A
 Frequencies --   1385.5371              1403.4942              1407.3772
 Red. masses --      1.2411                 1.2293                 1.3284
 Frc consts  --      1.4038                 1.4267                 1.5503
 IR Inten    --     35.3677                30.2172                 5.6473

                     52                     53                     54
                      A                      A                      A
 Frequencies --   1426.3868              1434.0610              1458.9530
 Red. masses --      1.3446                 1.4318                 1.6146
 Frc consts  --      1.6118                 1.7349                 2.0249
 IR Inten    --     25.9801                35.6535                10.2281

                     55                     56                     57
                      A                      A                      A
 Frequencies --   1462.5834              1479.7936              1499.1158
 Red. masses --      1.5998                 1.7750                 1.0856
 Frc consts  --      2.0163                 2.2900                 1.4374
 IR Inten    --     31.4186                 6.4651                 5.4944

                     58                     59                     60
                      A                      A                      A
 Frequencies --   1518.8289              2988.1409              3012.0608
 Red. masses --      1.0859                 1.0834                 1.0779
 Frc consts  --      1.4759                 5.6995                 5.7620
 IR Inten    --      5.1432                39.2986                 7.3751

                     61                     62                     63
                      A                      A                      A
 Frequencies --   3023.4573              3060.5011              3072.0637
 Red. masses --      1.0687                 1.0856                 1.0850
 Frc consts  --      5.7556                 5.9913                 6.0329
 IR Inten    --     46.0825                32.0760                16.7709

                     64                     65                     66
                      A                      A                      A
 Frequencies --   3081.5582              3099.2939              3142.8022
 Red. masses --      1.0604                 1.1000                 1.1071
 Frc consts  --      5.9329                 6.2253                 6.4427
 IR Inten    --     18.6356                30.5951                17.0400

                     67                     68                     69
                      A                      A                      A
 Frequencies --   3832.4143              3844.6485              3866.6338
 Red. masses --      1.0651                 1.0654                 1.0654
 Frc consts  --      9.2165                 9.2784                 9.3852
 IR Inten    --     76.2139                95.1786                69.4857

                     70                     71                     72
                      A                      A                      A
 Frequencies --   3879.6717              3913.4149              3946.3301
 Red. masses --      1.0656                 1.0664                 1.0668
 Frc consts  --      9.4504                 9.6225                 9.7885
 IR Inten    --     68.3299                37.8645                53.4602

 - Thermochemistry -
 -------------------
 Temperature   298.150 Kelvin.  Pressure   1.00000 Atm.
 Atom     1 has atomic number  6 and mass  12.00000

 Molecular mass:   182.07904 amu.
 Principal axes and moments of inertia in atomic units:
                           1         2         3
     Eigenvalues --   912.070164251.284714549.36556
           X            0.99999  -0.00312   0.00119
           Y            0.00309   0.99980   0.01979
           Z           -0.00125  -0.01978   0.99980
 This molecule is an asymmetric top.
 Rotational symmetry number  1.
 Warning -- assumption of classical behavior for rotation
           may cause significant error
 Rotational temperatures (Kelvin)      0.09496     0.02037     0.01904
 Rotational constants (GHZ):           1.97873     0.42452     0.39670
 Zero-point vibrational energy     582457.4 (Joules/Mol)
                                  139.21065 (Kcal/Mol)
 Warning -- explicit consideration of  23 degrees of freedom as
           vibrations may cause significant error
 Vibrational temperatures:     70.49    88.58   114.35   179.07   192.24
          (Kelvin)            211.25   272.74   334.02   355.01   375.73
                              421.62   438.76   457.07   461.89   500.73
                              594.20   654.15   668.44   689.13   714.91
                              761.63   802.50   870.30  1009.52  1088.96
                             1244.84  1311.89  1328.31  1419.23  1512.35
                             1527.00  1567.51  1575.12  1586.51  1603.97
                             1643.64  1651.78  1668.72  1733.09  1761.20
                             1778.03  1807.16  1844.18  1856.68  1913.33
                             1943.64  1967.48  1985.88  1993.48  2019.32
                             2024.90  2052.25  2063.29  2099.11  2104.33
                             2129.09  2156.89  2185.26  4299.27  4333.68
                             4350.08  4403.38  4420.01  4433.67  4459.19
                             4521.79  5513.99  5531.59  5563.22  5581.98
                             5630.53  5677.89

 Zero-point correction=                           0.221846 (Hartree/Particle)
 Thermal correction to Energy=                    0.235789
 Thermal correction to Enthalpy=                  0.236733
 Thermal correction to Gibbs Free Energy=         0.181546
 Sum of electronic and zero-point Energies=           -688.257523
 Sum of electronic and thermal Energies=              -688.243581
 Sum of electronic and thermal Enthalpies=            -688.242637
 Sum of electronic and thermal Free Energies=         -688.297824

                     E (Thermal)             CV                S
                      KCal/Mol        Cal/Mol-Kelvin    Cal/Mol-Kelvin
 Total                  147.960             51.372            116.151
 Electronic               0.000              0.000              0.000
 Translational            0.889              2.981             41.504
 Rotational               0.889              2.981             31.245
 Vibrational            146.182             45.411             43.401
 Vibration     1          0.595              1.978              4.858
 Vibration     2          0.597              1.973              4.406
 Vibration     3          0.600              1.963              3.904
 Vibration     4          0.610              1.929              3.030
 Vibration     5          0.613              1.920              2.893
 Vibration     6          0.617              1.906              2.713
 Vibration     7          0.633              1.854              2.232
 Vibration     8          0.653              1.792              1.862
 Vibration     9          0.661              1.768              1.754
 Vibration    10          0.669              1.744              1.654
 Vibration    11          0.688              1.687              1.456
 Vibration    12          0.696              1.664              1.390
 Vibration    13          0.704              1.640              1.322
 Vibration    14          0.706              1.633              1.305
 Vibration    15          0.726              1.579              1.175
 Vibration    16          0.777              1.442              0.916
 Vibration    17          0.813              1.351              0.782
 Vibration    18          0.822              1.329              0.753
 Vibration    19          0.835              1.297              0.713
 Vibration    20          0.852              1.257              0.666
 Vibration    21          0.884              1.185              0.589
 Vibration    22          0.913              1.123              0.528
 Vibration    23          0.963              1.021              0.441

 Optimization completed.
    -- Stationary point found.
 Normal termination of Gaussian 16 at Wed Oct 11 15:07:55 2023.
