 Gaussian 16, Revision C.01,
 Gaussian 16:  ES64L-G16RevC.01  3-Jul-2019

 ---------------------------------------------
 # opt freq wb97xd/def2tzvpp geom=connectivity
 ---------------------------------------------

 --------------------------------
 Mannitol Conformer Optimziations
 --------------------------------
 Symbolic Z-matrix:
 Charge =  0 Multiplicity = 1

 SCF Done:  E(RwB97XD) =  -688.472969754     A.U. after   14 cycles
 SCF Done:  E(RwB97XD) =  -688.479435717     A.U. after   12 cycles
 SCF Done:  E(RwB97XD) =  -688.478911036     A.U. after   12 cycles
 SCF Done:  E(RwB97XD) =  -688.480532212     A.U. after   11 cycles
 SCF Done:  E(RwB97XD) =  -688.481040233     A.U. after   11 cycles
 SCF Done:  E(RwB97XD) =  -688.481190077     A.U. after   11 cycles
 SCF Done:  E(RwB97XD) =  -688.481217540     A.U. after   10 cycles
 SCF Done:  E(RwB97XD) =  -688.481221872     A.U. after    8 cycles
 SCF Done:  E(RwB97XD) =  -688.481219925     A.U. after    9 cycles
 SCF Done:  E(RwB97XD) =  -688.481222521     A.U. after    8 cycles
 SCF Done:  E(RwB97XD) =  -688.481224472     A.U. after    8 cycles
 SCF Done:  E(RwB97XD) =  -688.481224778     A.U. after    7 cycles
 SCF Done:  E(RwB97XD) =  -688.481224871     A.U. after    6 cycles
 SCF Done:  E(RwB97XD) =  -688.481224883     A.U. after    6 cycles
 Optimization completed.
    -- Stationary point found.
 Normal termination of Gaussian 16 at Wed Sep 27 11:46:41 2023.

 ----------------------------------------------------------------------
 #N Geom=AllCheck Guess=TCheck SCRF=Check GenChk RwB97XD/def2TZVPP Freq
 ----------------------------------------------------------------------

 Structure from the checkpoint file:  "MannitolConformerOpt_18.chk"
 --------------------------------
 Mannitol Conformer Optimziations
 --------------------------------
 Charge =  0 Multiplicity = 1

                         Standard orientation:
 ---------------------------------------------------------------------
 Center     Atomic      Atomic             Coordinates (Angstroms)
 Number     Number       Type             X           Y           Z
 ---------------------------------------------------------------------
      1          6           0       -0.803452    0.666516   -0.576877
      2          6           0        0.499439    0.744749    0.225634
      3          6           0       -1.513320   -0.688870   -0.640673
      4          6           0        1.629851   -0.113591   -0.324947
      5          1           0        0.307187    0.429644    1.260695
      6          1           0       -0.576252    0.975683   -1.600507
      7          6           0       -1.819296   -1.296402    0.722011
      8          1           0       -0.877819   -1.389385   -1.181209
      9          6           0        2.949908    0.181799    0.377740
     10          1           0        1.744371    0.108193   -1.396953
     11          1           0       -2.297237   -2.267620    0.573380
     12          1           0       -0.901787   -1.454972    1.284237
     13          1           0        2.820603    0.065590    1.454684
     14          1           0        3.275584    1.201593    0.175555
     15          8           0       -2.654263   -0.450501    1.509663
     16          1           0       -3.536140   -0.496163    1.138727
     17          8           0       -2.719294   -0.540056   -1.373508
     18          1           0       -2.994930    0.375000   -1.282156
     19          8           0       -1.697089    1.661834   -0.078237
     20          1           0       -2.069758    1.307599    0.740168
     21          8           0        0.951220    2.081671    0.203272
     22          1           0        0.168605    2.633312    0.282625
     23          8           0        1.300756   -1.474076   -0.143215
     24          1           0        2.131133   -1.957290   -0.169604
     25          8           0        3.926504   -0.775115   -0.007726
     26          1           0        4.284989   -0.526455   -0.858959
 ---------------------------------------------------------------------

 SCF Done:  E(RwB97XD) =  -688.481224883     A.U. after    1 cycles

 The electronic state is 1-A.
 Alpha  occ. eigenvalues --  -19.26881 -19.26865 -19.26444 -19.25667 -19.25258
 Alpha  occ. eigenvalues --  -19.25079 -10.34453 -10.34311 -10.34260 -10.33599
 Alpha  occ. eigenvalues --  -10.33511 -10.33161  -1.16667  -1.15677  -1.14352
 Alpha  occ. eigenvalues --   -1.12941  -1.12598  -1.11598  -0.89017  -0.85616
 Alpha  occ. eigenvalues --   -0.80740  -0.75735  -0.71424  -0.69269  -0.64574
 Alpha  occ. eigenvalues --   -0.63346  -0.60730  -0.60285  -0.59965  -0.59808
 Alpha  occ. eigenvalues --   -0.56992  -0.54927  -0.53164  -0.52240  -0.51311
 Alpha  occ. eigenvalues --   -0.50099  -0.48988  -0.47322  -0.45513  -0.45107
 Alpha  occ. eigenvalues --   -0.43557  -0.43316  -0.41806  -0.40615  -0.39064
 Alpha  occ. eigenvalues --   -0.38266  -0.36867  -0.35953  -0.35080
 Alpha virt. eigenvalues --    0.09049   0.09737   0.12726   0.13065   0.13699
 Alpha virt. eigenvalues --    0.15330   0.16455   0.16951   0.17928   0.18863
 Alpha virt. eigenvalues --    0.19638   0.20344   0.20469   0.21712   0.21982

 Mulliken charges:
               1
     1  C    0.120970
     2  C    0.062731
     3  C    0.145792
     4  C    0.115437
     5  H    0.073578
     6  H    0.097010
     7  C    0.020554
     8  H    0.063060
     9  C    0.037036
    10  H    0.044755
    11  H    0.092609
    12  H    0.077530
    13  H    0.077429
    14  H    0.095271
    15  O   -0.357065
    16  H    0.171149
    17  O   -0.378499
    18  H    0.188386
    19  O   -0.425510
    20  H    0.203960
    21  O   -0.361756
    22  H    0.190264
    23  O   -0.358013
    24  H    0.179504
    25  O   -0.352032
    26  H    0.175850
 Sum of Mulliken charges =  -0.00000

 Dipole moment (field-independent basis, Debye):
    X=              0.4776    Y=              0.0464    Z=             -0.5383  Tot=              0.7212
 Quadrupole moment (field-independent basis, Debye-Ang):
   XX=            -66.8057   YY=            -74.6238   ZZ=            -74.2348
   XY=             -0.7915   XZ=             -8.4040   YZ=             -0.1816

  Exact polarizability:     109.057       0.005      93.134      -1.046      -0.400      84.130
 Approx polarizability:     105.772      -2.246     104.889      -1.681      -0.273      99.258

                      1                      2                      3
                      A                      A                      A
 Frequencies --     47.8699                69.9319                95.0699
 Red. masses --      5.2682                 4.5536                 5.5018
 Frc consts  --      0.0071                 0.0131                 0.0293
 IR Inten    --      2.5040                 2.1942                 5.3982

                      4                      5                      6
                      A                      A                      A
 Frequencies --    126.1400               132.8344               165.7788
 Red. masses --      6.3455                 3.0397                 5.1044
 Frc consts  --      0.0595                 0.0316                 0.0827
 IR Inten    --      0.7092                 1.1641                28.3014

                      7                      8                      9
                      A                      A                      A
 Frequencies --    211.0373               244.9220               288.1528
 Red. masses --      4.3602                 5.6218                 4.2942
 Frc consts  --      0.1144                 0.1987                 0.2101
 IR Inten    --      1.9918                 5.8751                 4.3125

                     10                     11                     12
                      A                      A                      A
 Frequencies --    296.4657               308.3727               320.5201
 Red. masses --      1.7208                 1.8528                 2.6466
 Frc consts  --      0.0891                 0.1038                 0.1602
 IR Inten    --     12.9617                97.5561                35.5399

                     13                     14                     15
                      A                      A                      A
 Frequencies --    343.0230               365.2513               379.2250
 Red. masses --      5.2450                 2.7921                 1.9316
 Frc consts  --      0.3636                 0.2195                 0.1637
 IR Inten    --      3.3597                48.1063                96.5468

                     16                     17                     18
                      A                      A                      A
 Frequencies --    415.3375               436.5207               497.1231
 Red. masses --      2.3310                 1.1450                 1.5606
 Frc consts  --      0.2369                 0.1285                 0.2272
 IR Inten    --      9.5922                35.8061                 4.3439

                     19                     20                     21
                      A                      A                      A
 Frequencies --    511.3191               516.7902               537.8912
 Red. masses --      2.1005                 1.4242                 1.9130
 Frc consts  --      0.3236                 0.2241                 0.3261
 IR Inten    --     62.9321               134.3408                42.5791

                     22                     23                     24
                      A                      A                      A
 Frequencies --    584.8910               628.3031               728.7184
 Red. masses --      3.1653                 3.2249                 1.1226
 Frc consts  --      0.6380                 0.7501                 0.3512
 IR Inten    --      4.6730                15.9374               104.2528

                     25                     26                     27
                      A                      A                      A
 Frequencies --    812.0057               846.1802               906.9971
 Red. masses --      3.9420                 2.9967                 2.2729
 Frc consts  --      1.5314                 1.2642                 1.1017
 IR Inten    --     16.7064                30.2291                19.8829

                     28                     29                     30
                      A                      A                      A
 Frequencies --    956.2097               977.4796              1015.0013
 Red. masses --      2.5527                 1.9543                 2.7791
 Frc consts  --      1.3752                 1.1002                 1.6869
 IR Inten    --      6.1360                52.3657                64.1047

                     31                     32                     33
                      A                      A                      A
 Frequencies --   1063.3137              1068.0245              1094.9572
 Red. masses --      2.8071                 2.8500                 3.7282
 Frc consts  --      1.8699                 1.9154                 2.6336
 IR Inten    --     36.4279                58.0455               103.3861

                     34                     35                     36
                      A                      A                      A
 Frequencies --   1099.6516              1113.3278              1132.5162
 Red. masses --      2.5947                 2.4257                 3.7044
 Frc consts  --      1.8486                 1.7714                 2.7994
 IR Inten    --     34.0613                23.8775               121.5722

                     37                     38                     39
                      A                      A                      A
 Frequencies --   1142.2556              1172.7611              1195.8734
 Red. masses --      3.1400                 2.3346                 1.4149
 Frc consts  --      2.4139                 1.8918                 1.1922
 IR Inten    --    101.9641                16.2614                21.0970

                     40                     41                     42
                      A                      A                      A
 Frequencies --   1226.3348              1259.6689              1282.4973
 Red. masses --      1.1571                 1.2899                 1.2985
 Frc consts  --      1.0253                 1.2059                 1.2583
 IR Inten    --     60.8238                14.5652                12.8763

                     43                     44                     45
                      A                      A                      A
 Frequencies --   1300.5873              1315.3570              1320.5224
 Red. masses --      1.3225                 1.2309                 1.1771
 Frc consts  --      1.3180                 1.2548                 1.2094
 IR Inten    --     32.4769               102.7168                 1.0738

                     46                     47                     48
                      A                      A                      A
 Frequencies --   1356.9284              1376.9402              1387.8167
 Red. masses --      1.2718                 1.2458                 1.3486
 Frc consts  --      1.3797                 1.3917                 1.5303
 IR Inten    --     38.6027                26.0847                17.2927

                     49                     50                     51
                      A                      A                      A
 Frequencies --   1394.2843              1397.3687              1411.7681
 Red. masses --      1.2532                 1.2039                 1.3588
 Frc consts  --      1.4354                 1.3850                 1.5956
 IR Inten    --     42.9968                 5.3848                 5.3779

                     52                     53                     54
                      A                      A                      A
 Frequencies --   1416.0674              1426.3533              1440.4314
 Red. masses --      1.3154                 1.3384                 1.3795
 Frc consts  --      1.5541                 1.6043                 1.6864
 IR Inten    --      4.5536                21.1269                32.6071

                     55                     56                     57
                      A                      A                      A
 Frequencies --   1470.7646              1491.5942              1504.6319
 Red. masses --      1.2550                 1.8607                 1.0855
 Frc consts  --      1.5995                 2.4390                 1.4480
 IR Inten    --     55.8844                 1.9985                 3.8795

                     58                     59                     60
                      A                      A                      A
 Frequencies --   1517.9166              2975.0076              3003.6199
 Red. masses --      1.0803                 1.0817                 1.0834
 Frc consts  --      1.4665                 5.6406                 5.7589
 IR Inten    --      9.0831                29.0253                44.9290

                     61                     62                     63
                      A                      A                      A
 Frequencies --   3063.6409              3071.4619              3078.1746
 Red. masses --      1.0679                 1.0860                 1.0588
 Frc consts  --      5.9054                 6.0365                 5.9108
 IR Inten    --     34.8000                30.1876                20.7055

                     64                     65                     66
                      A                      A                      A
 Frequencies --   3121.9800              3138.4391              3149.7745
 Red. masses --      1.0862                 1.1089                 1.0993
 Frc consts  --      6.2379                 6.4353                 6.4257
 IR Inten    --     10.3334                18.0293                12.4535

                     67                     68                     69
                      A                      A                      A
 Frequencies --   3744.4145              3842.0789              3850.4491
 Red. masses --      1.0657                 1.0654                 1.0653
 Frc consts  --      8.8037                 9.2664                 9.3059
 IR Inten    --    167.6797                97.4632                44.3742

                     70                     71                     72
                      A                      A                      A
 Frequencies --   3859.6448              3901.8313              3916.9455
 Red. masses --      1.0657                 1.0659                 1.0665
 Frc consts  --      9.3537                 9.5608                 9.6404
 IR Inten    --     79.3447                45.2166                41.4709

 - Thermochemistry -
 -------------------
 Temperature   298.150 Kelvin.  Pressure   1.00000 Atm.
 Atom     1 has atomic number  6 and mass  12.00000

 Molecular mass:   182.07904 amu.
 Principal axes and moments of inertia in atomic units:
                           1         2         3
     Eigenvalues --  1184.888073429.222953881.76662
           X            0.99997   0.00554  -0.00476
           Y           -0.00558   0.99996  -0.00750
           Z            0.00472   0.00753   0.99996
 This molecule is an asymmetric top.
 Rotational symmetry number  1.
 Warning -- assumption of classical behavior for rotation
           may cause significant error
 Rotational temperatures (Kelvin)      0.07310     0.02526     0.02231
 Rotational constants (GHZ):           1.52313     0.52628     0.46493
 Zero-point vibrational energy     585352.8 (Joules/Mol)
                                  139.90267 (Kcal/Mol)
 Warning -- explicit consideration of  22 degrees of freedom as
           vibrations may cause significant error
 Vibrational temperatures:     68.87   100.62   136.78   181.49   191.12
          (Kelvin)            238.52   303.64   352.39   414.59   426.55
                              443.68   461.16   493.53   525.52   545.62
                              597.58   628.06   715.25   735.67   743.55
                              773.91   841.53   903.99  1048.46  1168.30
                             1217.46  1304.97  1375.77  1406.38  1460.36
                             1529.87  1536.65  1575.40  1582.15  1601.83
                             1629.44  1643.45  1687.34  1720.60  1764.42
                             1812.38  1845.23  1871.26  1892.51  1899.94
                             1952.32  1981.11  1996.76  2006.06  2010.50
                             2031.22  2037.41  2052.20  2072.46  2116.10
                             2146.07  2164.83  2183.94  4280.37  4321.54
                             4407.90  4419.15  4428.81  4491.83  4515.51
                             4531.82  5387.38  5527.89  5539.94  5553.17
                             5613.87  5635.61

 Zero-point correction=                           0.222949 (Hartree/Particle)
 Thermal correction to Energy=                    0.236399
 Thermal correction to Enthalpy=                  0.237343
 Thermal correction to Gibbs Free Energy=         0.183423
 Sum of electronic and zero-point Energies=           -688.258276
 Sum of electronic and thermal Energies=              -688.244826
 Sum of electronic and thermal Enthalpies=            -688.243882
 Sum of electronic and thermal Free Energies=         -688.297802

                     E (Thermal)             CV                S
                      KCal/Mol        Cal/Mol-Kelvin    Cal/Mol-Kelvin
 Total                  148.343             50.478            113.484
 Electronic               0.000              0.000              0.000
 Translational            0.889              2.981             41.504
 Rotational               0.889              2.981             31.134
 Vibrational            146.565             44.516             40.846
 Vibration     1          0.595              1.978              4.903
 Vibration     2          0.598              1.968              4.155
 Vibration     3          0.603              1.953              3.553
 Vibration     4          0.611              1.927              3.004
 Vibration     5          0.613              1.921              2.905
 Vibration     6          0.624              1.885              2.483
 Vibration     7          0.643              1.824              2.035
 Vibration     8          0.660              1.771              1.767
 Vibration     9          0.685              1.696              1.485
 Vibration    10          0.690              1.680              1.437
 Vibration    11          0.698              1.658              1.371
 Vibration    12          0.706              1.634              1.307
 Vibration    13          0.722              1.589              1.198
 Vibration    14          0.738              1.544              1.100
 Vibration    15          0.749              1.514              1.042
 Vibration    16          0.779              1.437              0.908
 Vibration    17          0.797              1.391              0.838
 Vibration    18          0.853              1.256              0.665
 Vibration    19          0.866              1.225              0.630
 Vibration    20          0.872              1.213              0.617
 Vibration    21          0.893              1.166              0.570
 Vibration    22          0.942              1.064              0.476

 Optimization completed.
    -- Stationary point found.
 Normal termination of Gaussian 16 at Wed Sep 27 12:23:53 2023.
