 Gaussian 16, Revision C.01,
 Gaussian 16:  ES64L-G16RevC.01  3-Jul-2019

 ---------------------------------------------
 # opt freq wb97xd/Def2TZVPP geom=connectivity
 ---------------------------------------------

 -------------------
 Title Card Required
 -------------------
 Symbolic Z-matrix:
 Charge =  0 Multiplicity = 1

 SCF Done:  E(RwB97XD) =  -688.468200293     A.U. after   14 cycles
 SCF Done:  E(RwB97XD) =  -688.476478439     A.U. after   11 cycles
 SCF Done:  E(RwB97XD) =  -688.472412602     A.U. after   12 cycles
 SCF Done:  E(RwB97XD) =  -688.476651376     A.U. after   12 cycles
 SCF Done:  E(RwB97XD) =  -688.477643342     A.U. after   12 cycles
 SCF Done:  E(RwB97XD) =  -688.478288847     A.U. after   12 cycles
 SCF Done:  E(RwB97XD) =  -688.478415525     A.U. after   11 cycles
 SCF Done:  E(RwB97XD) =  -688.478507279     A.U. after   10 cycles
 SCF Done:  E(RwB97XD) =  -688.478542684     A.U. after   10 cycles
 SCF Done:  E(RwB97XD) =  -688.478572219     A.U. after   11 cycles
 SCF Done:  E(RwB97XD) =  -688.478585464     A.U. after   11 cycles
 SCF Done:  E(RwB97XD) =  -688.478603260     A.U. after    9 cycles
 SCF Done:  E(RwB97XD) =  -688.478607345     A.U. after   10 cycles
 SCF Done:  E(RwB97XD) =  -688.478611552     A.U. after    9 cycles
 SCF Done:  E(RwB97XD) =  -688.478615963     A.U. after    9 cycles
 SCF Done:  E(RwB97XD) =  -688.478617515     A.U. after    9 cycles
 SCF Done:  E(RwB97XD) =  -688.478617705     A.U. after    8 cycles
 SCF Done:  E(RwB97XD) =  -688.478617723     A.U. after    7 cycles
 Optimization completed.
    -- Stationary point found.
 Normal termination of Gaussian 16 at Wed Oct 11 15:19:06 2023.

 ----------------------------------------------------------------------
 #N Geom=AllCheck Guess=TCheck SCRF=Check GenChk RwB97XD/def2TZVPP Freq
 ----------------------------------------------------------------------

 Structure from the checkpoint file:  "MannitolConformerOpt_48.chk"
 -------------------
 Title Card Required
 -------------------
 Charge =  0 Multiplicity = 1

                         Standard orientation:
 ---------------------------------------------------------------------
 Center     Atomic      Atomic             Coordinates (Angstroms)
 Number     Number       Type             X           Y           Z
 ---------------------------------------------------------------------
      1          6           0        0.157472    0.755355    0.469762
      2          6           0       -0.886149    0.756353   -0.656348
      3          6           0        1.318661   -0.232571    0.318984
      4          6           0       -1.964114   -0.334576   -0.599347
      5          1           0       -0.376249    0.679972   -1.622989
      6          1           0       -0.352309    0.532167    1.414304
      7          6           0        2.105295   -0.107217   -0.976381
      8          1           0        0.950473   -1.251357    0.423484
      9          6           0       -1.491113   -1.777057   -0.470094
     10          1           0       -2.515322   -0.248603   -1.543764
     11          1           0        1.477680   -0.388457   -1.821476
     12          1           0        2.417378    0.933191   -1.120322
     13          1           0       -0.634862   -1.959119   -1.122386
     14          1           0       -2.301982   -2.435686   -0.796864
     15          8           0        3.206495   -0.981379   -0.987171
     16          1           0        3.682787   -0.837439   -0.167657
     17          8           0        2.253847    0.043977    1.370769
     18          1           0        2.008244   -0.462335    2.143677
     19          8           0        0.673359    2.077627    0.515454
     20          1           0        1.431170    2.062978    1.104028
     21          8           0       -1.619499    1.966891   -0.611516
     22          1           0       -1.012575    2.652053   -0.318583
     23          8           0       -2.839131   -0.108244    0.485345
     24          1           0       -2.977848    0.842278    0.525657
     25          8           0       -1.107414   -2.095378    0.847905
     26          1           0       -1.778149   -1.709317    1.417154
 ---------------------------------------------------------------------

 SCF Done:  E(RwB97XD) =  -688.478617723     A.U. after    1 cycles

 The electronic state is 1-A.
 Alpha  occ. eigenvalues --  -19.27763 -19.26638 -19.26005 -19.25987 -19.25508
 Alpha  occ. eigenvalues --  -19.24612 -10.34954 -10.34850 -10.34611 -10.34440
 Alpha  occ. eigenvalues --  -10.33875 -10.33124  -1.17338  -1.16021  -1.14635
 Alpha  occ. eigenvalues --   -1.13024  -1.12161  -1.11628  -0.89696  -0.85696
 Alpha  occ. eigenvalues --   -0.80854  -0.76068  -0.71939  -0.69369  -0.65164
 Alpha  occ. eigenvalues --   -0.63596  -0.61237  -0.60897  -0.59814  -0.59159
 Alpha  occ. eigenvalues --   -0.57981  -0.54354  -0.53378  -0.52464  -0.51809
 Alpha  occ. eigenvalues --   -0.51195  -0.49381  -0.47057  -0.45547  -0.45176
 Alpha  occ. eigenvalues --   -0.44204  -0.42963  -0.42451  -0.41325  -0.38466
 Alpha  occ. eigenvalues --   -0.37635  -0.37151  -0.36397  -0.35226
 Alpha virt. eigenvalues --    0.08514   0.11051   0.11322   0.12189   0.14509
 Alpha virt. eigenvalues --    0.15181   0.15489   0.16887   0.17933   0.19612
 Alpha virt. eigenvalues --    0.19729   0.20018   0.20744   0.21669   0.22733

 Mulliken charges:
               1
     1  C    0.122803
     2  C    0.087964
     3  C    0.037091
     4  C    0.109234
     5  H    0.085350
     6  H    0.066345
     7  C    0.072943
     8  H    0.129377
     9  C    0.027914
    10  H    0.087519
    11  H    0.048302
    12  H    0.079827
    13  H    0.064550
    14  H    0.098168
    15  O   -0.350889
    16  H    0.180613
    17  O   -0.387385
    18  H    0.188837
    19  O   -0.377883
    20  H    0.186156
    21  O   -0.390437
    22  H    0.206636
    23  O   -0.393758
    24  H    0.198477
    25  O   -0.371523
    26  H    0.193767
 Sum of Mulliken charges =  -0.00000

 Dipole moment (field-independent basis, Debye):
    X=             -0.1089    Y=              0.6715    Z=              1.5196  Tot=              1.6649
 Quadrupole moment (field-independent basis, Debye-Ang):
   XX=            -78.1666   YY=            -76.7554   ZZ=            -67.4336
   XY=              3.1613   XZ=              6.5392   YZ=              1.1636

  Exact polarizability:     102.453      -0.824      93.106       1.982       0.916      87.894
 Approx polarizability:     103.563      -1.289     102.406       1.447       0.503     103.328

                      1                      2                      3
                      A                      A                      A
 Frequencies --     34.7488                67.7915                88.0892
 Red. masses --      4.6380                 4.9859                 3.3528
 Frc consts  --      0.0033                 0.0135                 0.0153
 IR Inten    --      2.0724                 3.4842                 1.0717

                      4                      5                      6
                      A                      A                      A
 Frequencies --    118.7377               158.8532               163.2370
 Red. masses --      6.6770                 5.8647                 4.4204
 Frc consts  --      0.0555                 0.0872                 0.0694
 IR Inten    --      3.6008                11.6583                 3.4943

                      7                      8                      9
                      A                      A                      A
 Frequencies --    194.1239               228.7744               272.4205
 Red. masses --      4.2599                 4.0787                 2.0148
 Frc consts  --      0.0946                 0.1258                 0.0881
 IR Inten    --      9.1901                 7.4568                17.0797

                     10                     11                     12
                      A                      A                      A
 Frequencies --    281.4021               288.2604               323.0817
 Red. masses --      2.2397                 1.8407                 3.4190
 Frc consts  --      0.1045                 0.0901                 0.2103
 IR Inten    --      4.7050                16.0992                11.1925

                     13                     14                     15
                      A                      A                      A
 Frequencies --    341.2557               363.9561               425.9862
 Red. masses --      3.9471                 3.5096                 1.2825
 Frc consts  --      0.2708                 0.2739                 0.1371
 IR Inten    --      8.4767                 6.2182               225.4915

                     16                     17                     18
                      A                      A                      A
 Frequencies --    434.4322               454.7784               471.7561
 Red. masses --      2.7414                 1.3850                 1.2159
 Frc consts  --      0.3048                 0.1688                 0.1594
 IR Inten    --      8.1593                73.9968               129.7924

                     19                     20                     21
                      A                      A                      A
 Frequencies --    491.7781               509.4421               531.4226
 Red. masses --      2.6982                 1.0965                 1.4769
 Frc consts  --      0.3845                 0.1677                 0.2457
 IR Inten    --     14.6057                39.6575               122.4923

                     22                     23                     24
                      A                      A                      A
 Frequencies --    556.2715               610.1580               721.7028
 Red. masses --      2.3728                 3.6559                 4.3027
 Frc consts  --      0.4326                 0.8019                 1.3204
 IR Inten    --     33.7000                42.3185                37.1275

                     25                     26                     27
                      A                      A                      A
 Frequencies --    771.2757               857.6541               870.1250
 Red. masses --      4.2362                 3.0002                 2.5714
 Frc consts  --      1.4847                 1.3002                 1.1470
 IR Inten    --      3.2262                23.0669                11.8349

                     28                     29                     30
                      A                      A                      A
 Frequencies --    943.4540               953.8305               998.9776
 Red. masses --      2.2239                 2.1979                 2.2457
 Frc consts  --      1.1663                 1.1782                 1.3204
 IR Inten    --     30.3226                41.6264                20.3696

                     31                     32                     33
                      A                      A                      A
 Frequencies --   1053.4120              1083.5296              1103.1897
 Red. masses --      3.0589                 1.9473                 3.2658
 Frc consts  --      1.9999                 1.3470                 2.3417
 IR Inten    --     30.0895                26.4955                79.3508

                     34                     35                     36
                      A                      A                      A
 Frequencies --   1110.3909              1115.9372              1127.8704
 Red. masses --      2.7071                 3.1122                 5.8280
 Frc consts  --      1.9665                 2.2835                 4.3681
 IR Inten    --     51.7653               234.3457                40.1918

                     37                     38                     39
                      A                      A                      A
 Frequencies --   1154.9245              1164.5084              1207.9643
 Red. masses --      3.0781                 3.1175                 1.1818
 Frc consts  --      2.4190                 2.4908                 1.0160
 IR Inten    --     11.2412                60.1462                16.3350

                     40                     41                     42
                      A                      A                      A
 Frequencies --   1216.4649              1245.9793              1284.5541
 Red. masses --      1.1639                 1.2319                 1.1539
 Frc consts  --      1.0148                 1.1268                 1.1218
 IR Inten    --     10.7232                40.7973                31.3220

                     43                     44                     45
                      A                      A                      A
 Frequencies --   1298.8438              1311.5084              1322.6951
 Red. masses --      1.2599                 1.2333                 1.3337
 Frc consts  --      1.2523                 1.2499                 1.3747
 IR Inten    --     80.4336                24.4307                20.6297

                     46                     47                     48
                      A                      A                      A
 Frequencies --   1352.5262              1375.6316              1379.5605
 Red. masses --      1.2223                 1.2392                 1.2461
 Frc consts  --      1.3174                 1.3816                 1.3973
 IR Inten    --     46.6309                21.2499                 8.1092

                     49                     50                     51
                      A                      A                      A
 Frequencies --   1385.9809              1402.3649              1416.3355
 Red. masses --      1.2276                 1.2921                 1.3741
 Frc consts  --      1.3893                 1.4971                 1.6241
 IR Inten    --     21.6567                 2.6980                25.1303

                     52                     53                     54
                      A                      A                      A
 Frequencies --   1432.8900              1443.1750              1458.3053
 Red. masses --      1.2774                 1.3342                 1.6721
 Frc consts  --      1.5453                 1.6372                 2.0951
 IR Inten    --     40.0398                63.7089                33.1204

                     55                     56                     57
                      A                      A                      A
 Frequencies --   1465.1369              1474.1322              1513.8129
 Red. masses --      1.5112                 1.5190                 1.0885
 Frc consts  --      1.9113                 1.9448                 1.4697
 IR Inten    --     14.6016                14.4837                 1.8894

                     58                     59                     60
                      A                      A                      A
 Frequencies --   1521.6872              3011.3592              3024.5638
 Red. masses --      1.0891                 1.0817                 1.0825
 Frc consts  --      1.4858                 5.7796                 5.8342
 IR Inten    --      4.2375                18.0961                 8.2478

                     61                     62                     63
                      A                      A                      A
 Frequencies --   3032.5960              3037.0528              3043.7355
 Red. masses --      1.0686                 1.0749                 1.0778
 Frc consts  --      5.7901                 5.8417                 5.8830
 IR Inten    --     24.7738                44.8553                92.5314

                     64                     65                     66
                      A                      A                      A
 Frequencies --   3098.8071              3119.1310              3143.3213
 Red. masses --      1.0997                 1.0939                 1.0870
 Frc consts  --      6.2217                 6.2703                 6.3279
 IR Inten    --     27.7965                22.2593                 6.9096

                     67                     68                     69
                      A                      A                      A
 Frequencies --   3841.3452              3848.5684              3853.0860
 Red. masses --      1.0654                 1.0648                 1.0651
 Frc consts  --      9.2628                 9.2918                 9.3170
 IR Inten    --    153.4587                62.9994                36.7240

                     70                     71                     72
                      A                      A                      A
 Frequencies --   3874.2930              3885.9110              3928.4115
 Red. masses --      1.0655                 1.0653                 1.0667
 Frc consts  --      9.4232                 9.4782                 9.6993
 IR Inten    --     57.3883                53.6443                54.4197

 - Thermochemistry -
 -------------------
 Temperature   298.150 Kelvin.  Pressure   1.00000 Atm.
 Atom     1 has atomic number  6 and mass  12.00000

 Molecular mass:   182.07904 amu.
 Principal axes and moments of inertia in atomic units:
                           1         2         3
     Eigenvalues --  1500.878992768.331343407.90063
           X            0.99991   0.01193   0.00574
           Y           -0.01199   0.99987   0.01074
           Z           -0.00561  -0.01081   0.99993
 This molecule is an asymmetric top.
 Rotational symmetry number  1.
 Warning -- assumption of classical behavior for rotation
           may cause significant error
 Rotational temperatures (Kelvin)      0.05771     0.03129     0.02542
 Rotational constants (GHZ):           1.20246     0.65192     0.52958
 Zero-point vibrational energy     584335.5 (Joules/Mol)
                                  139.65954 (Kcal/Mol)
 Warning -- explicit consideration of  23 degrees of freedom as
           vibrations may cause significant error
 Vibrational temperatures:     50.00    97.54   126.74   170.84   228.55
          (Kelvin)            234.86   279.30   329.16   391.95   404.87
                              414.74   464.84   490.99   523.65   612.90
                              625.05   654.32   678.75   707.56   732.97
                              764.60   800.35   877.88  1038.37  1109.69
                             1233.97  1251.92  1357.42  1372.35  1437.31
                             1515.62  1558.96  1587.24  1597.60  1605.58
                             1622.75  1661.68  1675.47  1737.99  1750.22
                             1792.69  1848.19  1868.75  1886.97  1903.06
                             1945.98  1979.23  1984.88  1994.12  2017.69
                             2037.79  2061.61  2076.41  2098.18  2108.01
                             2120.95  2178.04  2189.37  4332.67  4351.67
                             4363.23  4369.64  4379.26  4458.49  4487.73
                             4522.54  5526.84  5537.23  5543.73  5574.24
                             5590.96  5652.11

 Zero-point correction=                           0.222562 (Hartree/Particle)
 Thermal correction to Energy=                    0.236162
 Thermal correction to Enthalpy=                  0.237106
 Thermal correction to Gibbs Free Energy=         0.182650
 Sum of electronic and zero-point Energies=           -688.256056
 Sum of electronic and thermal Energies=              -688.242456
 Sum of electronic and thermal Enthalpies=            -688.241511
 Sum of electronic and thermal Free Energies=         -688.295967

                     E (Thermal)             CV                S
                      KCal/Mol        Cal/Mol-Kelvin    Cal/Mol-Kelvin
 Total                  148.194             50.814            114.612
 Electronic               0.000              0.000              0.000
 Translational            0.889              2.981             41.504
 Rotational               0.889              2.981             31.027
 Vibrational            146.416             44.852             42.081
 Vibration     1          0.594              1.983              5.538
 Vibration     2          0.598              1.970              4.216
 Vibration     3          0.601              1.958              3.702
 Vibration     4          0.609              1.934              3.121
 Vibration     5          0.621              1.893              2.563
 Vibration     6          0.623              1.888              2.512
 Vibration     7          0.635              1.848              2.188
 Vibration     8          0.651              1.797              1.889
 Vibration     9          0.675              1.724              1.581
 Vibration    10          0.681              1.708              1.525
 Vibration    11          0.685              1.696              1.484
 Vibration    12          0.708              1.629              1.294
 Vibration    13          0.721              1.593              1.206
 Vibration    14          0.737              1.546              1.105
 Vibration    15          0.788              1.414              0.872
 Vibration    16          0.795              1.395              0.844
 Vibration    17          0.813              1.350              0.781
 Vibration    18          0.829              1.313              0.733
 Vibration    19          0.848              1.268              0.679
 Vibration    20          0.865              1.229              0.635
 Vibration    21          0.886              1.180              0.584
 Vibration    22          0.912              1.126              0.531
 Vibration    23          0.969              1.010              0.433

 Optimization completed.
    -- Stationary point found.
 Normal termination of Gaussian 16 at Wed Oct 11 15:58:36 2023.
