 Gaussian 16, Revision C.01,
 Gaussian 16:  ES64L-G16RevC.01  3-Jul-2019

 ---------------------------------------------
 # opt freq wb97xd/def2tzvpp geom=connectivity
 ---------------------------------------------

 --------------------------------
 Mannitol Conformer Optimziations
 --------------------------------
 Symbolic Z-matrix:
 Charge =  0 Multiplicity = 1

 SCF Done:  E(RwB97XD) =  -688.470312300     A.U. after   14 cycles
 SCF Done:  E(RwB97XD) =  -688.478693933     A.U. after   12 cycles
 SCF Done:  E(RwB97XD) =  -688.478645485     A.U. after   12 cycles
 SCF Done:  E(RwB97XD) =  -688.479818136     A.U. after   12 cycles
 SCF Done:  E(RwB97XD) =  -688.480402243     A.U. after   12 cycles
 SCF Done:  E(RwB97XD) =  -688.480400760     A.U. after   11 cycles
 SCF Done:  E(RwB97XD) =  -688.480374956     A.U. after   11 cycles
 SCF Done:  E(RwB97XD) =  -688.480476019     A.U. after   10 cycles
 SCF Done:  E(RwB97XD) =  -688.480483439     A.U. after   10 cycles
 SCF Done:  E(RwB97XD) =  -688.480492135     A.U. after   10 cycles
 SCF Done:  E(RwB97XD) =  -688.480494931     A.U. after    8 cycles
 SCF Done:  E(RwB97XD) =  -688.480495926     A.U. after    8 cycles
 SCF Done:  E(RwB97XD) =  -688.480496750     A.U. after    8 cycles
 SCF Done:  E(RwB97XD) =  -688.480497556     A.U. after    8 cycles
 SCF Done:  E(RwB97XD) =  -688.480497991     A.U. after    8 cycles
 SCF Done:  E(RwB97XD) =  -688.480498062     A.U. after    7 cycles
 Optimization completed.
    -- Stationary point found.
 Normal termination of Gaussian 16 at Wed Sep 27 12:08:30 2023.

 ----------------------------------------------------------------------
 #N Geom=AllCheck Guess=TCheck SCRF=Check GenChk RwB97XD/def2TZVPP Freq
 ----------------------------------------------------------------------

 Structure from the checkpoint file:  "MannitolConformerOpt_12.chk"
 --------------------------------
 Mannitol Conformer Optimziations
 --------------------------------
 Charge =  0 Multiplicity = 1

                         Standard orientation:
 ---------------------------------------------------------------------
 Center     Atomic      Atomic             Coordinates (Angstroms)
 Number     Number       Type             X           Y           Z
 ---------------------------------------------------------------------
      1          6           0        0.392199    0.863768    0.083095
      2          6           0       -0.685958    0.196435   -0.767448
      3          6           0        1.540769   -0.042772    0.512410
      4          6           0       -1.384320   -1.005318   -0.117476
      5          1           0       -0.234932   -0.148211   -1.699249
      6          1           0       -0.075746    1.259371    0.994441
      7          6           0        2.224031   -0.782532   -0.633668
      8          1           0        1.170964   -0.782562    1.225970
      9          6           0       -1.945793   -0.723272    1.269661
     10          1           0       -0.652510   -1.808926   -0.002120
     11          1           0        2.537672   -0.060495   -1.396621
     12          1           0        1.535706   -1.488646   -1.101297
     13          1           0       -1.126704   -0.584134    1.983406
     14          1           0       -2.533949   -1.591045    1.576866
     15          8           0        3.312868   -1.532018   -0.154563
     16          1           0        3.794400   -0.959174    0.446743
     17          8           0        2.503801    0.719562    1.219638
     18          1           0        2.617105    1.541420    0.734434
     19          8           0        0.968555    1.934158   -0.641742
     20          1           0        0.250751    2.409878   -1.065205
     21          8           0       -1.635432    1.177786   -1.164428
     22          1           0       -2.170096    1.381659   -0.387883
     23          8           0       -2.379475   -1.495059   -0.983237
     24          1           0       -2.817436   -0.735647   -1.374805
     25          8           0       -2.760110    0.442309    1.216982
     26          1           0       -3.222440    0.554756    2.044668
 ---------------------------------------------------------------------

 SCF Done:  E(RwB97XD) =  -688.480498062     A.U. after    1 cycles

 The electronic state is 1-A.
 Alpha  occ. eigenvalues --  -19.28591 -19.26721 -19.26346 -19.25803 -19.25529
 Alpha  occ. eigenvalues --  -19.24049 -10.35304 -10.35221 -10.35099 -10.34845
 Alpha  occ. eigenvalues --  -10.34332 -10.32572  -1.17436  -1.16070  -1.14733
 Alpha  occ. eigenvalues --   -1.13506  -1.12394  -1.11272  -0.90427  -0.85727
 Alpha  occ. eigenvalues --   -0.80719  -0.76689  -0.72073  -0.70043  -0.66203
 Alpha  occ. eigenvalues --   -0.64462  -0.62147  -0.60754  -0.59134  -0.57430
 Alpha  occ. eigenvalues --   -0.56858  -0.55511  -0.54485  -0.53083  -0.52245
 Alpha  occ. eigenvalues --   -0.50174  -0.49765  -0.49311  -0.46762  -0.44623
 Alpha  occ. eigenvalues --   -0.43548  -0.42715  -0.41753  -0.40234  -0.39666
 Alpha  occ. eigenvalues --   -0.38512  -0.37850  -0.36317  -0.34621
 Alpha virt. eigenvalues --    0.07959   0.10993   0.11476   0.12681   0.13614
 Alpha virt. eigenvalues --    0.14563   0.15611   0.16122   0.17880   0.18260
 Alpha virt. eigenvalues --    0.19249   0.20278   0.20375   0.21791   0.21826

 Mulliken charges:
               1
     1  C   -0.021660
     2  C    0.131988
     3  C    0.186736
     4  C    0.164570
     5  H    0.111352
     6  H    0.096522
     7  C    0.040096
     8  H    0.058658
     9  C   -0.054038
    10  H    0.063176
    11  H    0.080561
    12  H    0.049071
    13  H    0.084268
    14  H    0.111899
    15  O   -0.354203
    16  H    0.184696
    17  O   -0.386520
    18  H    0.196997
    19  O   -0.370214
    20  H    0.185669
    21  O   -0.416613
    22  H    0.206445
    23  O   -0.358323
    24  H    0.187018
    25  O   -0.333217
    26  H    0.155068
 Sum of Mulliken charges =  -0.00000

 Dipole moment (field-independent basis, Debye):
    X=             -2.8374    Y=              1.8326    Z=              2.3647  Tot=              4.1233
 Quadrupole moment (field-independent basis, Debye-Ang):
   XX=            -74.8665   YY=            -76.7384   ZZ=            -70.0758
   XY=              1.3558   XZ=             -8.4435   YZ=             -2.2875

  Exact polarizability:     105.209      -0.421      90.822       0.066      -1.193      88.067
 Approx polarizability:     104.559      -1.287     103.394       2.060      -1.840     101.237

                      1                      2                      3
                      A                      A                      A
 Frequencies --     62.7010                68.5558               103.2509
 Red. masses --      6.0452                 5.3435                 3.7250
 Frc consts  --      0.0140                 0.0148                 0.0234
 IR Inten    --      1.0585                 3.4591                 4.6171

                      4                      5                      6
                      A                      A                      A
 Frequencies --    113.8063               150.9566               177.6991
 Red. masses --      5.8375                 3.6628                 4.5439
 Frc consts  --      0.0445                 0.0492                 0.0845
 IR Inten    --      0.6882                 4.5566                 3.6794

                      7                      8                      9
                      A                      A                      A
 Frequencies --    200.5133               219.1284               249.3455
 Red. masses --      3.7971                 1.1808                 4.4529
 Frc consts  --      0.0899                 0.0334                 0.1631
 IR Inten    --      1.3847               104.4148                 9.2135

                     10                     11                     12
                      A                      A                      A
 Frequencies --    271.0990               295.0138               315.3066
 Red. masses --      4.6607                 3.3105                 3.6710
 Frc consts  --      0.2018                 0.1698                 0.2150
 IR Inten    --      8.8606                27.8396                13.6952

                     13                     14                     15
                      A                      A                      A
 Frequencies --    343.0472               359.6620               389.8796
 Red. masses --      4.6015                 3.0198                 1.3303
 Frc consts  --      0.3191                 0.2302                 0.1191
 IR Inten    --      1.3457                 1.3232                25.0325

                     16                     17                     18
                      A                      A                      A
 Frequencies --    399.2211               427.2410               444.2143
 Red. masses --      2.1786                 1.4537                 1.3037
 Frc consts  --      0.2046                 0.1563                 0.1516
 IR Inten    --     21.0192                29.4853               128.1899

                     19                     20                     21
                      A                      A                      A
 Frequencies --    497.0383               519.9572               548.7988
 Red. masses --      2.9618                 1.2265                 2.4041
 Frc consts  --      0.4311                 0.1954                 0.4266
 IR Inten    --      9.9179               111.8222                72.4103

                     22                     23                     24
                      A                      A                      A
 Frequencies --    566.3996               649.7368               721.1471
 Red. masses --      3.3430                 1.1092                 3.8037
 Frc consts  --      0.6319                 0.2759                 1.1655
 IR Inten    --      1.0524               168.4372                14.3259

                     25                     26                     27
                      A                      A                      A
 Frequencies --    806.0388               827.9345               865.6534
 Red. masses --      3.9443                 2.9133                 2.7349
 Frc consts  --      1.5099                 1.1766                 1.2075
 IR Inten    --     29.4145                 9.9192                37.3689

                     28                     29                     30
                      A                      A                      A
 Frequencies --    959.4345               964.1913              1002.7632
 Red. masses --      2.0790                 2.4814                 2.1538
 Frc consts  --      1.1276                 1.3592                 1.2760
 IR Inten    --     14.6382                 1.8037                25.3545

                     31                     32                     33
                      A                      A                      A
 Frequencies --   1068.3731              1097.3674              1107.9815
 Red. masses --      3.7198                 2.7819                 3.3823
 Frc consts  --      2.5016                 1.9737                 2.4464
 IR Inten    --     28.7224                43.6931               146.3922

                     34                     35                     36
                      A                      A                      A
 Frequencies --   1120.8116              1127.3798              1145.6877
 Red. masses --      2.7649                 3.5188                 2.8633
 Frc consts  --      2.0464                 2.6351                 2.2144
 IR Inten    --    138.1337               101.3428                13.7856

                     37                     38                     39
                      A                      A                      A
 Frequencies --   1162.5547              1174.9854              1218.5373
 Red. masses --      3.2723                 2.7258                 1.1093
 Frc consts  --      2.6057                 2.2172                 0.9705
 IR Inten    --     63.3316                32.5002                78.5122

                     40                     41                     42
                      A                      A                      A
 Frequencies --   1228.9262              1241.2158              1264.0634
 Red. masses --      1.1771                 1.2129                 1.1765
 Frc consts  --      1.0474                 1.1009                 1.1076
 IR Inten    --     64.9293                12.7423                15.3927

                     43                     44                     45
                      A                      A                      A
 Frequencies --   1290.4890              1305.7939              1327.1110
 Red. masses --      1.2036                 1.2659                 1.4137
 Frc consts  --      1.1810                 1.2717                 1.4669
 IR Inten    --     18.7614                 8.9042                29.3541

                     46                     47                     48
                      A                      A                      A
 Frequencies --   1338.5659              1345.2797              1396.7843
 Red. masses --      1.4265                 1.2938                 1.3843
 Frc consts  --      1.5059                 1.3796                 1.5912
 IR Inten    --      0.5789                46.6876                21.0455

                     49                     50                     51
                      A                      A                      A
 Frequencies --   1400.6820              1423.1635              1425.3838
 Red. masses --      1.2816                 1.2284                 1.4288
 Frc consts  --      1.4814                 1.4658                 1.7104
 IR Inten    --     10.9632                13.7620                53.6617

                     52                     53                     54
                      A                      A                      A
 Frequencies --   1440.8071              1452.6427              1460.8548
 Red. masses --      1.2841                 1.3593                 1.4885
 Frc consts  --      1.5706                 1.6900                 1.8716
 IR Inten    --     44.8791                63.0087                 7.2529

                     55                     56                     57
                      A                      A                      A
 Frequencies --   1466.9032              1480.4432              1519.1939
 Red. masses --      1.3850                 1.2163                 1.0838
 Frc consts  --      1.7560                 1.5706                 1.4738
 IR Inten    --      1.1246                33.4266                 5.5463

                     58                     59                     60
                      A                      A                      A
 Frequencies --   1519.7478              3007.2005              3023.9043
 Red. masses --      1.0880                 1.0828                 1.0662
 Frc consts  --      1.4806                 5.7691                 5.7442
 IR Inten    --      9.5183                32.6317                28.8535

                     61                     62                     63
                      A                      A                      A
 Frequencies --   3031.2974              3073.5746              3082.7046
 Red. masses --      1.0612                 1.0854                 1.0850
 Frc consts  --      5.7451                 6.0411                 6.0751
 IR Inten    --     30.8905                16.5998                32.1017

                     64                     65                     66
                      A                      A                      A
 Frequencies --   3089.2460              3096.8555              3104.0324
 Red. masses --      1.1031                 1.0912                 1.0932
 Frc consts  --      6.2024                 6.1659                 6.2056
 IR Inten    --     35.0358                36.9770                25.4971

                     67                     68                     69
                      A                      A                      A
 Frequencies --   3780.6109              3855.2871              3865.1020
 Red. masses --      1.0657                 1.0654                 1.0655
 Frc consts  --      8.9741                 9.3300                 9.3781
 IR Inten    --    155.8265                61.9127                26.0157

                     70                     71                     72
                      A                      A                      A
 Frequencies --   3867.2130              3872.0433              3946.9471
 Red. masses --      1.0652                 1.0657                 1.0669
 Frc consts  --      9.3858                 9.4135                 9.7929
 IR Inten    --     44.7802                92.2572                64.4151

 - Thermochemistry -
 -------------------
 Temperature   298.150 Kelvin.  Pressure   1.00000 Atm.
 Atom     1 has atomic number  6 and mass  12.00000

 Molecular mass:   182.07904 amu.
 Principal axes and moments of inertia in atomic units:
                           1         2         3
     Eigenvalues --  1335.142733293.841983562.62298
           X            0.99991   0.00101  -0.01311
           Y           -0.00130   0.99976  -0.02197
           Z            0.01308   0.02199   0.99967
 This molecule is an asymmetric top.
 Rotational symmetry number  1.
 Warning -- assumption of classical behavior for rotation
           may cause significant error
 Rotational temperatures (Kelvin)      0.06487     0.02630     0.02431
 Rotational constants (GHZ):           1.35172     0.54791     0.50658
 Zero-point vibrational energy     584779.4 (Joules/Mol)
                                  139.76563 (Kcal/Mol)
 Warning -- explicit consideration of  22 degrees of freedom as
           vibrations may cause significant error
 Vibrational temperatures:     90.21    98.64   148.55   163.74   217.19
          (Kelvin)            255.67   288.49   315.28   358.75   390.05
                              424.46   453.66   493.57   517.47   560.95
                              574.39   614.70   639.13   715.13   748.10
                              789.60   814.92   934.83  1037.57  1159.71
                             1191.21  1245.48  1380.41  1387.26  1442.75
                             1537.15  1578.87  1594.14  1612.60  1622.05
                             1648.39  1672.66  1690.54  1753.20  1768.15
                             1785.83  1818.71  1856.73  1878.75  1909.42
                             1925.90  1935.56  2009.66  2015.27  2047.61
                             2050.81  2073.00  2090.03  2101.84  2110.55
                             2130.03  2185.78  2186.58  4326.69  4350.72
                             4361.36  4422.19  4435.32  4444.74  4455.68
                             4466.01  5439.46  5546.90  5561.02  5564.06
                             5571.01  5678.78

 Zero-point correction=                           0.222731 (Hartree/Particle)
 Thermal correction to Energy=                    0.236342
 Thermal correction to Enthalpy=                  0.237286
 Thermal correction to Gibbs Free Energy=         0.183265
 Sum of electronic and zero-point Energies=           -688.257767
 Sum of electronic and thermal Energies=              -688.244156
 Sum of electronic and thermal Enthalpies=            -688.243212
 Sum of electronic and thermal Free Energies=         -688.297233

                     E (Thermal)             CV                S
                      KCal/Mol        Cal/Mol-Kelvin    Cal/Mol-Kelvin
 Total                  148.307             50.833            113.697
 Electronic               0.000              0.000              0.000
 Translational            0.889              2.981             41.504
 Rotational               0.889              2.981             31.128
 Vibrational            146.530             44.872             41.065
 Vibration     1          0.597              1.972              4.370
 Vibration     2          0.598              1.969              4.194
 Vibration     3          0.605              1.947              3.392
 Vibration     4          0.607              1.938              3.203
 Vibration     5          0.618              1.902              2.660
 Vibration     6          0.628              1.870              2.352
 Vibration     7          0.638              1.839              2.128
 Vibration     8          0.647              1.812              1.966
 Vibration     9          0.662              1.764              1.735
 Vibration    10          0.675              1.726              1.589
 Vibration    11          0.689              1.683              1.445
 Vibration    12          0.703              1.644              1.334
 Vibration    13          0.722              1.589              1.198
 Vibration    14          0.734              1.555              1.124
 Vibration    15          0.758              1.492              1.001
 Vibration    16          0.765              1.472              0.966
 Vibration    17          0.789              1.411              0.868
 Vibration    18          0.804              1.374              0.813
 Vibration    19          0.853              1.257              0.666
 Vibration    20          0.875              1.206              0.610
 Vibration    21          0.904              1.142              0.547
 Vibration    22          0.922              1.104              0.511

 Optimization completed.
    -- Stationary point found.
 Normal termination of Gaussian 16 at Wed Sep 27 12:54:50 2023.
