 Gaussian 16, Revision C.01,
 Gaussian 16:  ES64L-G16RevC.01  3-Jul-2019

 ---------------------------------------------
 # opt freq wb97xd/Def2TZVPP geom=connectivity
 ---------------------------------------------

 -------------------
 Title Card Required
 -------------------
 Symbolic Z-matrix:
 Charge =  0 Multiplicity = 1

 SCF Done:  E(RwB97XD) =  -688.465546171     A.U. after   14 cycles
 SCF Done:  E(RwB97XD) =  -688.475516625     A.U. after   12 cycles
 SCF Done:  E(RwB97XD) =  -688.475288695     A.U. after   12 cycles
 SCF Done:  E(RwB97XD) =  -688.476573336     A.U. after   11 cycles
 SCF Done:  E(RwB97XD) =  -688.477180234     A.U. after   11 cycles
 SCF Done:  E(RwB97XD) =  -688.477242223     A.U. after   11 cycles
 SCF Done:  E(RwB97XD) =  -688.477373012     A.U. after   10 cycles
 SCF Done:  E(RwB97XD) =  -688.477403104     A.U. after   10 cycles
 SCF Done:  E(RwB97XD) =  -688.477411033     A.U. after    9 cycles
 SCF Done:  E(RwB97XD) =  -688.477414997     A.U. after    8 cycles
 SCF Done:  E(RwB97XD) =  -688.477418165     A.U. after    8 cycles
 SCF Done:  E(RwB97XD) =  -688.477418985     A.U. after    7 cycles
 SCF Done:  E(RwB97XD) =  -688.477419403     A.U. after    7 cycles
 Optimization completed.
    -- Stationary point found.
 Normal termination of Gaussian 16 at Wed Oct 11 14:41:16 2023.

 ----------------------------------------------------------------------
 #N Geom=AllCheck Guess=TCheck SCRF=Check GenChk RwB97XD/def2TZVPP Freq
 ----------------------------------------------------------------------

 Structure from the checkpoint file:  "MannitolConformerOpt_35.chk"
 -------------------
 Title Card Required
 -------------------
 Charge =  0 Multiplicity = 1

                         Standard orientation:
 ---------------------------------------------------------------------
 Center     Atomic      Atomic             Coordinates (Angstroms)
 Number     Number       Type             X           Y           Z
 ---------------------------------------------------------------------
      1          6           0        0.547070    1.003697    0.296244
      2          6           0       -0.666346    0.932064   -0.632314
      3          6           0        1.356853   -0.271414    0.512782
      4          6           0       -1.853414    0.093292   -0.163529
      5          1           0       -0.345960    0.567843   -1.617419
      6          1           0        0.199234    1.333208    1.280030
      7          6           0        1.802896   -0.950852   -0.769823
      8          1           0        0.767269   -0.975175    1.107004
      9          6           0       -1.717496   -1.413583   -0.277140
     10          1           0       -2.683100    0.380853   -0.819409
     11          1           0        2.290050   -0.217824   -1.418996
     12          1           0        0.939913   -1.371400   -1.293737
     13          1           0       -0.926769   -1.784604    0.382226
     14          1           0       -1.459215   -1.680087   -1.302924
     15          8           0        2.704768   -1.975897   -0.385266
     16          1           0        3.158814   -2.308578   -1.156602
     17          8           0        2.490694    0.134206    1.260249
     18          1           0        3.130583   -0.579111    1.204808
     19          8           0        1.380341    2.003343   -0.272519
     20          1           0        2.190611    2.009716    0.242323
     21          8           0       -1.186197    2.244322   -0.760065
     22          1           0       -0.434223    2.837947   -0.826956
     23          8           0       -2.198149    0.369887    1.182854
     24          1           0       -2.428083    1.298154    1.240900
     25          8           0       -2.937986   -2.048059    0.015891
     26          1           0       -3.244275   -1.692585    0.852272
 ---------------------------------------------------------------------

 SCF Done:  E(RwB97XD) =  -688.477419403     A.U. after    1 cycles

 The electronic state is 1-A.
 Alpha  occ. eigenvalues --  -19.27466 -19.26174 -19.26065 -19.26003 -19.25262
 Alpha  occ. eigenvalues --  -19.24524 -10.34715 -10.34566 -10.34546 -10.34450
 Alpha  occ. eigenvalues --  -10.34019 -10.33248  -1.16882  -1.15653  -1.14591
 Alpha  occ. eigenvalues --   -1.13215  -1.12048  -1.11407  -0.89769  -0.85696
 Alpha  occ. eigenvalues --   -0.81008  -0.76239  -0.72061  -0.68314  -0.64900
 Alpha  occ. eigenvalues --   -0.63645  -0.62487  -0.60510  -0.59387  -0.58150
 Alpha  occ. eigenvalues --   -0.57530  -0.56068  -0.54154  -0.51810  -0.51463
 Alpha  occ. eigenvalues --   -0.50010  -0.49558  -0.46966  -0.45636  -0.45285
 Alpha  occ. eigenvalues --   -0.44027  -0.43618  -0.41910  -0.39068  -0.38459
 Alpha  occ. eigenvalues --   -0.37993  -0.36655  -0.36383  -0.35937
 Alpha virt. eigenvalues --    0.08869   0.10779   0.11632   0.12553   0.13531
 Alpha virt. eigenvalues --    0.15216   0.15811   0.16474   0.17575   0.18109
 Alpha virt. eigenvalues --    0.18691   0.20696   0.20936   0.21855   0.22345

 Mulliken charges:
               1
     1  C    0.133608
     2  C    0.075889
     3  C    0.091585
     4  C    0.103674
     5  H    0.070704
     6  H    0.092932
     7  C   -0.042599
     8  H    0.097434
     9  C    0.044654
    10  H    0.099585
    11  H    0.103231
    12  H    0.076187
    13  H    0.074563
    14  H    0.058678
    15  O   -0.344870
    16  H    0.174900
    17  O   -0.384588
    18  H    0.194252
    19  O   -0.386051
    20  H    0.191389
    21  O   -0.366442
    22  H    0.197085
    23  O   -0.374978
    24  H    0.185637
    25  O   -0.350666
    26  H    0.184207
 Sum of Mulliken charges =  -0.00000

 Dipole moment (field-independent basis, Debye):
    X=              2.7105    Y=             -0.0375    Z=             -1.1158  Tot=              2.9315
 Quadrupole moment (field-independent basis, Debye-Ang):
   XX=            -70.7309   YY=            -75.7682   ZZ=            -70.7639
   XY=             -7.2292   XZ=             -7.4238   YZ=              4.3772

  Exact polarizability:     104.584      -0.993      96.560      -0.525       1.500      84.317
 Approx polarizability:     105.335      -0.658     103.292      -0.516       0.917     100.591

                      1                      2                      3
                      A                      A                      A
 Frequencies --     35.1043                77.9260               102.9836
 Red. masses --      4.6723                 5.1447                 4.2714
 Frc consts  --      0.0034                 0.0184                 0.0267
 IR Inten    --      1.3541                 0.1646                 2.2969

                      4                      5                      6
                      A                      A                      A
 Frequencies --    125.7396               136.8665               155.9014
 Red. masses --      5.8399                 3.3405                 3.8015
 Frc consts  --      0.0544                 0.0369                 0.0544
 IR Inten    --      6.0274                 2.6283                 5.9519

                      7                      8                      9
                      A                      A                      A
 Frequencies --    189.6404               209.6194               251.7908
 Red. masses --      4.5944                 4.3036                 1.1208
 Frc consts  --      0.0974                 0.1114                 0.0419
 IR Inten    --      9.5797                 3.6403                95.2654

                     10                     11                     12
                      A                      A                      A
 Frequencies --    259.2911               299.5680               318.4012
 Red. masses --      4.2047                 3.1689                 3.5561
 Frc consts  --      0.1666                 0.1676                 0.2124
 IR Inten    --      7.1419                 3.2808                26.4569

                     13                     14                     15
                      A                      A                      A
 Frequencies --    333.5033               352.3581               403.2363
 Red. masses --      3.5755                 4.0531                 1.8232
 Frc consts  --      0.2343                 0.2965                 0.1747
 IR Inten    --     12.4233                14.7296                41.9763

                     16                     17                     18
                      A                      A                      A
 Frequencies --    409.2546               428.5137               451.2811
 Red. masses --      1.4855                 1.3101                 1.2483
 Frc consts  --      0.1466                 0.1417                 0.1498
 IR Inten    --     51.3144               134.4118                66.6373

                     19                     20                     21
                      A                      A                      A
 Frequencies --    465.7205               500.6431               504.2566
 Red. masses --      1.2818                 1.2809                 2.8292
 Frc consts  --      0.1638                 0.1892                 0.4239
 IR Inten    --    124.4950                69.5446                38.1655

                     22                     23                     24
                      A                      A                      A
 Frequencies --    544.3170               565.3835               692.0849
 Red. masses --      2.7235                 3.2350                 4.1510
 Frc consts  --      0.4754                 0.6093                 1.1714
 IR Inten    --     14.7767                31.8983                30.2307

                     25                     26                     27
                      A                      A                      A
 Frequencies --    754.2910               872.0421               890.2774
 Red. masses --      3.8041                 2.8711                 2.5314
 Frc consts  --      1.2752                 1.2864                 1.1821
 IR Inten    --     33.7117                 6.9449                39.8595

                     28                     29                     30
                      A                      A                      A
 Frequencies --    951.3410               986.4909              1043.8011
 Red. masses --      2.1510                 2.0656                 3.0267
 Frc consts  --      1.1470                 1.1844                 1.9429
 IR Inten    --      4.5697                18.1300                51.9669

                     31                     32                     33
                      A                      A                      A
 Frequencies --   1066.8249              1091.1670              1098.5537
 Red. masses --      2.6598                 2.8881                 5.0620
 Frc consts  --      1.7836                 2.0260                 3.5993
 IR Inten    --     55.2189               158.8103               134.0497

                     34                     35                     36
                      A                      A                      A
 Frequencies --   1109.1233              1125.5770              1129.0000
 Red. masses --      2.3579                 3.6999                 2.8694
 Frc consts  --      1.7089                 2.7618                 2.1549
 IR Inten    --     35.0702                10.1026                76.4618

                     37                     38                     39
                      A                      A                      A
 Frequencies --   1145.6690              1165.9973              1213.0508
 Red. masses --      2.8993                 3.2123                 1.1524
 Frc consts  --      2.2421                 2.5731                 0.9991
 IR Inten    --     40.5564                31.9498                62.5340

                     40                     41                     42
                      A                      A                      A
 Frequencies --   1229.9357              1263.5183              1268.8251
 Red. masses --      1.2251                 1.2530                 1.1676
 Frc consts  --      1.0919                 1.1786                 1.1075
 IR Inten    --     29.0142                13.4496                43.6165

                     43                     44                     45
                      A                      A                      A
 Frequencies --   1284.1257              1295.1521              1306.6767
 Red. masses --      1.1168                 1.1177                 1.2093
 Frc consts  --      1.0850                 1.1046                 1.2165
 IR Inten    --     33.4637                 4.5076                30.9962

                     46                     47                     48
                      A                      A                      A
 Frequencies --   1352.4592              1364.9433              1388.6359
 Red. masses --      1.2446                 1.2068                 1.2879
 Frc consts  --      1.3413                 1.3247                 1.4632
 IR Inten    --     41.6458                46.4673                11.6564

                     49                     50                     51
                      A                      A                      A
 Frequencies --   1393.8843              1408.3017              1419.5326
 Red. masses --      1.2739                 1.2419                 1.3938
 Frc consts  --      1.4583                 1.4512                 1.6548
 IR Inten    --     15.6421                13.7375                14.6159

                     52                     53                     54
                      A                      A                      A
 Frequencies --   1423.8455              1437.5488              1465.8102
 Red. masses --      1.4091                 1.3855                 1.6206
 Frc consts  --      1.6832                 1.6869                 2.0516
 IR Inten    --     43.4113                55.4098                 3.9943

                     55                     56                     57
                      A                      A                      A
 Frequencies --   1468.7828              1475.8932              1508.1275
 Red. masses --      1.6561                 1.6274                 1.0923
 Frc consts  --      2.1050                 2.0886                 1.4638
 IR Inten    --     13.0888                11.6367                 2.3328

                     58                     59                     60
                      A                      A                      A
 Frequencies --   1526.9088              3007.6331              3032.1678
 Red. masses --      1.0862                 1.0818                 1.0810
 Frc consts  --      1.4921                 5.7658                 5.8556
 IR Inten    --      5.3802                29.2981                 8.5342

                     61                     62                     63
                      A                      A                      A
 Frequencies --   3041.6913              3044.8639              3053.9908
 Red. masses --      1.0586                 1.0695                 1.0803
 Frc consts  --      5.7704                 5.8421                 5.9362
 IR Inten    --     56.5189                43.5195                36.5148

                     64                     65                     66
                      A                      A                      A
 Frequencies --   3065.3007              3093.6284              3110.0254
 Red. masses --      1.0821                 1.1063                 1.1014
 Frc consts  --      5.9904                 6.2380                 6.2768
 IR Inten    --     13.9474                38.2697                28.5001

                     67                     68                     69
                      A                      A                      A
 Frequencies --   3857.4969              3866.9397              3870.0077
 Red. masses --      1.0654                 1.0654                 1.0655
 Frc consts  --      9.3408                 9.3862                 9.4018
 IR Inten    --     96.0586               110.5853                33.6703

                     70                     71                     72
                      A                      A                      A
 Frequencies --   3884.4162              3900.7379              3944.1754
 Red. masses --      1.0656                 1.0659                 1.0669
 Frc consts  --      9.4734                 9.5560                 9.7786
 IR Inten    --     45.3664                54.5219                60.9663

 - Thermochemistry -
 -------------------
 Temperature   298.150 Kelvin.  Pressure   1.00000 Atm.
 Atom     1 has atomic number  6 and mass  12.00000

 Molecular mass:   182.07904 amu.
 Principal axes and moments of inertia in atomic units:
                           1         2         3
     Eigenvalues --  1657.942552804.846213780.86807
           X            0.99994  -0.00910  -0.00647
           Y            0.00918   0.99989   0.01201
           Z            0.00636  -0.01206   0.99991
 This molecule is an asymmetric top.
 Rotational symmetry number  1.
 Warning -- assumption of classical behavior for rotation
           may cause significant error
 Rotational temperatures (Kelvin)      0.05224     0.03088     0.02291
 Rotational constants (GHZ):           1.08854     0.64344     0.47734
 Zero-point vibrational energy     583254.7 (Joules/Mol)
                                  139.40122 (Kcal/Mol)
 Warning -- explicit consideration of  23 degrees of freedom as
           vibrations may cause significant error
 Vibrational temperatures:     50.51   112.12   148.17   180.91   196.92
          (Kelvin)            224.31   272.85   301.60   362.27   373.06
                              431.01   458.11   479.84   506.96   580.17
                              588.83   616.54   649.29   670.07   720.31
                              725.51   783.15   813.46   995.76  1085.26
                             1254.67  1280.91  1368.77  1419.34  1501.80
                             1534.92  1569.95  1580.57  1595.78  1619.45
                             1624.38  1648.36  1677.61  1745.31  1769.60
                             1817.92  1825.56  1847.57  1863.43  1880.02
                             1945.89  1963.85  1997.94  2005.49  2026.23
                             2042.39  2048.60  2068.31  2108.97  2113.25
                             2123.48  2169.86  2196.88  4327.31  4362.61
                             4376.32  4380.88  4394.01  4410.28  4451.04
                             4474.63  5550.08  5563.66  5568.08  5588.81
                             5612.29  5674.79

 Zero-point correction=                           0.222150 (Hartree/Particle)
 Thermal correction to Energy=                    0.236004
 Thermal correction to Enthalpy=                  0.236948
 Thermal correction to Gibbs Free Energy=         0.182036
 Sum of electronic and zero-point Energies=           -688.255269
 Sum of electronic and thermal Energies=              -688.241416
 Sum of electronic and thermal Enthalpies=            -688.240471
 Sum of electronic and thermal Free Energies=         -688.295384

                     E (Thermal)             CV                S
                      KCal/Mol        Cal/Mol-Kelvin    Cal/Mol-Kelvin
 Total                  148.095             51.358            115.573
 Electronic               0.000              0.000              0.000
 Translational            0.889              2.981             41.504
 Rotational               0.889              2.981             31.242
 Vibrational            146.317             45.396             42.826
 Vibration     1          0.594              1.982              5.518
 Vibration     2          0.599              1.964              3.942
 Vibration     3          0.605              1.947              3.397
 Vibration     4          0.611              1.927              3.010
 Vibration     5          0.614              1.917              2.847
 Vibration     6          0.620              1.896              2.599
 Vibration     7          0.633              1.854              2.231
 Vibration     8          0.642              1.826              2.047
 Vibration     9          0.664              1.760              1.718
 Vibration    10          0.668              1.747              1.667
 Vibration    11          0.692              1.674              1.419
 Vibration    12          0.705              1.638              1.318
 Vibration    13          0.715              1.609              1.243
 Vibration    14          0.729              1.570              1.156
 Vibration    15          0.769              1.463              0.951
 Vibration    16          0.774              1.450              0.929
 Vibration    17          0.790              1.408              0.864
 Vibration    18          0.810              1.358              0.792
 Vibration    19          0.823              1.326              0.750
 Vibration    20          0.856              1.249              0.657
 Vibration    21          0.860              1.241              0.648
 Vibration    22          0.899              1.152              0.556
 Vibration    23          0.921              1.106              0.513

                           ! Non-Optimized Parameters !
 Normal termination of Gaussian 16 at Wed Oct 11 15:21:35 2023.
