 Gaussian 16, Revision C.01,
 Gaussian 16:  ES64L-G16RevC.01  3-Jul-2019

 ---------------------------------------------
 # opt freq wb97xd/Def2TZVPP geom=connectivity
 ---------------------------------------------

 -------------------
 Title Card Required
 -------------------
 Symbolic Z-matrix:
 Charge =  0 Multiplicity = 1

 SCF Done:  E(RwB97XD) =  -688.466827524     A.U. after   13 cycles
 SCF Done:  E(RwB97XD) =  -688.476357754     A.U. after   11 cycles
 SCF Done:  E(RwB97XD) =  -688.472727345     A.U. after   12 cycles
 SCF Done:  E(RwB97XD) =  -688.476755909     A.U. after   12 cycles
 SCF Done:  E(RwB97XD) =  -688.478173777     A.U. after   12 cycles
 SCF Done:  E(RwB97XD) =  -688.478530806     A.U. after   11 cycles
 SCF Done:  E(RwB97XD) =  -688.478588890     A.U. after   11 cycles
 SCF Done:  E(RwB97XD) =  -688.478654875     A.U. after   10 cycles
 SCF Done:  E(RwB97XD) =  -688.478667378     A.U. after   10 cycles
 SCF Done:  E(RwB97XD) =  -688.478677223     A.U. after    9 cycles
 SCF Done:  E(RwB97XD) =  -688.478682681     A.U. after    9 cycles
 SCF Done:  E(RwB97XD) =  -688.478686217     A.U. after    8 cycles
 SCF Done:  E(RwB97XD) =  -688.478688189     A.U. after    8 cycles
 SCF Done:  E(RwB97XD) =  -688.478689239     A.U. after    8 cycles
 SCF Done:  E(RwB97XD) =  -688.478689487     A.U. after    7 cycles
 Optimization completed.
    -- Stationary point found.
 Normal termination of Gaussian 16 at Wed Oct 11 15:05:32 2023.

 ----------------------------------------------------------------------
 #N Geom=AllCheck Guess=TCheck SCRF=Check GenChk RwB97XD/def2TZVPP Freq
 ----------------------------------------------------------------------

 Structure from the checkpoint file:  "MannitolConformerOpt_34.chk"
 -------------------
 Title Card Required
 -------------------
 Charge =  0 Multiplicity = 1

                         Standard orientation:
 ---------------------------------------------------------------------
 Center     Atomic      Atomic             Coordinates (Angstroms)
 Number     Number       Type             X           Y           Z
 ---------------------------------------------------------------------
      1          6           0       -0.878023    0.745937   -0.658352
      2          6           0        0.163779    0.777216    0.467942
      3          6           0       -1.974182   -0.324098   -0.577509
      4          6           0        1.306490   -0.234422    0.375426
      5          1           0       -0.342158    0.613855    1.424781
      6          1           0       -0.367655    0.635100   -1.622463
      7          6           0       -1.533489   -1.776911   -0.451075
      8          1           0       -2.534044   -0.230088   -1.516551
      9          6           0        2.043307   -0.223979   -0.954558
     10          1           0        0.916574   -1.234192    0.570806
     11          1           0       -0.687166   -1.975972   -1.112027
     12          1           0       -2.362818   -2.414576   -0.775019
     13          1           0        2.310228    0.802309   -1.223567
     14          1           0        1.407990   -0.642852   -1.740863
     15          8           0       -1.144906   -2.110222    0.858486
     16          1           0       -1.779486   -1.688015    1.443074
     17          8           0       -2.832015   -0.073099    0.514793
     18          1           0       -2.957351    0.879412    0.546345
     19          8           0       -1.595186    1.967753   -0.651672
     20          1           0       -0.979118    2.649990   -0.370202
     21          8           0        0.707915    2.089709    0.439847
     22          1           0        1.466997    2.078618    1.028560
     23          8           0        2.201043    0.141723    1.412863
     24          1           0        3.028192   -0.314486    1.243232
     25          8           0        3.201952   -1.023189   -0.774745
     26          1           0        3.802097   -0.882963   -1.503926
 ---------------------------------------------------------------------

 SCF Done:  E(RwB97XD) =  -688.478689487     A.U. after    1 cycles

 The electronic state is 1-A.
 Alpha  occ. eigenvalues --  -19.27086 -19.25919 -19.25568 -19.25566 -19.25559
 Alpha  occ. eigenvalues --  -19.24738 -10.34579 -10.34266 -10.34196 -10.34140
 Alpha  occ. eigenvalues --  -10.33708 -10.33398  -1.16798  -1.15691  -1.14506
 Alpha  occ. eigenvalues --   -1.13066  -1.11841  -1.11029  -0.89277  -0.85432
 Alpha  occ. eigenvalues --   -0.80762  -0.76154  -0.71523  -0.68664  -0.64357
 Alpha  occ. eigenvalues --   -0.63118  -0.61525  -0.60160  -0.59209  -0.58177
 Alpha  occ. eigenvalues --   -0.57621  -0.56291  -0.53841  -0.52728  -0.51091
 Alpha  occ. eigenvalues --   -0.50031  -0.48826  -0.46523  -0.45490  -0.44751
 Alpha  occ. eigenvalues --   -0.44331  -0.43259  -0.42273  -0.38835  -0.38171
 Alpha  occ. eigenvalues --   -0.37703  -0.36890  -0.35955  -0.35569
 Alpha virt. eigenvalues --    0.09091   0.11037   0.11181   0.12759   0.14536
 Alpha virt. eigenvalues --    0.15326   0.16166   0.16894   0.18432   0.19184
 Alpha virt. eigenvalues --    0.20357   0.20671   0.21338   0.21853   0.23210

 Mulliken charges:
               1
     1  C    0.104678
     2  C    0.123102
     3  C    0.105350
     4  C    0.104320
     5  H    0.086925
     6  H    0.079441
     7  C    0.034534
     8  H    0.085284
     9  C   -0.038291
    10  H    0.121190
    11  H    0.058010
    12  H    0.093092
    13  H    0.097626
    14  H    0.060967
    15  O   -0.363198
    16  H    0.194611
    17  O   -0.391313
    18  H    0.196952
    19  O   -0.392823
    20  H    0.206848
    21  O   -0.392114
    22  H    0.190789
    23  O   -0.388658
    24  H    0.193251
    25  O   -0.343572
    26  H    0.172998
 Sum of Mulliken charges =  -0.00000

 Dipole moment (field-independent basis, Debye):
    X=              1.9983    Y=              0.5909    Z=             -2.3202  Tot=              3.1186
 Quadrupole moment (field-independent basis, Debye-Ang):
   XX=            -66.8340   YY=            -77.4347   ZZ=            -69.0469
   XY=              1.6083   XZ=             -5.3353   YZ=              4.8007

  Exact polarizability:     104.332      -1.000      92.916       0.644       1.841      87.046
 Approx polarizability:     105.040      -1.763     102.104       0.063       1.185     102.259

                      1                      2                      3
                      A                      A                      A
 Frequencies --     52.0622                71.4312                92.5674
 Red. masses --      5.8854                 5.0009                 2.9974
 Frc consts  --      0.0094                 0.0150                 0.0151
 IR Inten    --      0.7884                 1.5942                 5.6505

                      4                      5                      6
                      A                      A                      A
 Frequencies --    116.5399               156.5798               170.7555
 Red. masses --      6.1766                 5.3005                 5.3156
 Frc consts  --      0.0494                 0.0766                 0.0913
 IR Inten    --      4.8939                 9.7371                 6.1267

                      7                      8                      9
                      A                      A                      A
 Frequencies --    186.0992               235.0832               250.6352
 Red. masses --      4.0881                 4.0694                 1.1283
 Frc consts  --      0.0834                 0.1325                 0.0418
 IR Inten    --      7.1634                 2.4624                95.6997

                     10                     11                     12
                      A                      A                      A
 Frequencies --    276.3865               284.8052               316.0092
 Red. masses --      3.9094                 2.9513                 3.4683
 Frc consts  --      0.1760                 0.1410                 0.2041
 IR Inten    --      8.9988                20.0316                16.8985

                     13                     14                     15
                      A                      A                      A
 Frequencies --    340.3072               360.2172               413.7344
 Red. masses --      3.4739                 3.3680                 1.7154
 Frc consts  --      0.2370                 0.2575                 0.1730
 IR Inten    --      3.6577                26.2044                26.6737

                     16                     17                     18
                      A                      A                      A
 Frequencies --    449.9804               460.5770               466.9049
 Red. masses --      1.3547                 1.3707                 1.6814
 Frc consts  --      0.1616                 0.1713                 0.2160
 IR Inten    --    195.7133                95.9998                46.5762

                     19                     20                     21
                      A                      A                      A
 Frequencies --    492.2758               510.9556               539.6025
 Red. masses --      2.2531                 1.2016                 1.3781
 Frc consts  --      0.3217                 0.1848                 0.2364
 IR Inten    --     18.8832                24.3143                89.8916

                     22                     23                     24
                      A                      A                      A
 Frequencies --    564.0096               610.6673               717.8166
 Red. masses --      2.6876                 3.5607                 3.9479
 Frc consts  --      0.5037                 0.7823                 1.1985
 IR Inten    --     54.4066                38.3050                41.2178

                     25                     26                     27
                      A                      A                      A
 Frequencies --    765.3427               857.2664               875.8484
 Red. masses --      4.2078                 3.0496                 2.6932
 Frc consts  --      1.4522                 1.3205                 1.2172
 IR Inten    --      9.4813                10.4416                27.7842

                     28                     29                     30
                      A                      A                      A
 Frequencies --    953.0066               963.0918              1008.4684
 Red. masses --      2.0692                 2.4249                 2.1267
 Frc consts  --      1.1073                 1.3252                 1.2743
 IR Inten    --      7.8638                43.9261                22.3709

                     31                     32                     33
                      A                      A                      A
 Frequencies --   1056.8444              1094.2477              1101.5482
 Red. masses --      2.8908                 5.2485                 2.6603
 Frc consts  --      1.9024                 3.7027                 1.9019
 IR Inten    --      2.6703                98.1158                26.6425

                     34                     35                     36
                      A                      A                      A
 Frequencies --   1113.9866              1116.7068              1128.8397
 Red. masses --      3.8076                 2.5567                 2.7885
 Frc consts  --      2.7840                 1.8785                 2.0936
 IR Inten    --    173.4335                97.8538                47.9441

                     37                     38                     39
                      A                      A                      A
 Frequencies --   1151.6720              1164.6879              1212.4216
 Red. masses --      3.0521                 2.9627                 1.1479
 Frc consts  --      2.3851                 2.3679                 0.9942
 IR Inten    --      1.3468                62.0158                32.9891

                     40                     41                     42
                      A                      A                      A
 Frequencies --   1227.0113              1262.1817              1269.7066
 Red. masses --      1.2006                 1.2536                 1.1559
 Frc consts  --      1.0650                 1.1767                 1.0979
 IR Inten    --     45.0001                26.5112                30.1400

                     43                     44                     45
                      A                      A                      A
 Frequencies --   1287.5718              1293.2029              1314.8574
 Red. masses --      1.1222                 1.1266                 1.1767
 Frc consts  --      1.0961                 1.1100                 1.1986
 IR Inten    --     39.7928                13.9571                30.4396

                     46                     47                     48
                      A                      A                      A
 Frequencies --   1355.0048              1372.7327              1381.0931
 Red. masses --      1.1953                 1.2488                 1.2675
 Frc consts  --      1.2931                 1.3865                 1.4244
 IR Inten    --     23.2133                32.0078                 9.5356

                     49                     50                     51
                      A                      A                      A
 Frequencies --   1398.9511              1405.4606              1413.9612
 Red. masses --      1.2842                 1.3544                 1.2883
 Frc consts  --      1.4808                 1.5762                 1.5176
 IR Inten    --     19.4640                25.4744                48.0309

                     52                     53                     54
                      A                      A                      A
 Frequencies --   1431.8686              1442.6451              1460.2735
 Red. masses --      1.3526                 1.3592                 1.7758
 Frc consts  --      1.6339                 1.6667                 2.2310
 IR Inten    --     20.3326                62.4505                24.7895

                     55                     56                     57
                      A                      A                      A
 Frequencies --   1469.0783              1470.5957              1517.8210
 Red. masses --      1.6583                 1.5960                 1.0858
 Frc consts  --      2.1086                 2.0336                 1.4738
 IR Inten    --     12.1845                27.6940                 4.3490

                     58                     59                     60
                      A                      A                      A
 Frequencies --   1526.1834              3004.7929              3020.9649
 Red. masses --      1.0901                 1.0813                 1.0757
 Frc consts  --      1.4960                 5.7519                 5.7841
 IR Inten    --      6.9248                18.0266                24.7115

                     61                     62                     63
                      A                      A                      A
 Frequencies --   3030.6440              3035.6516              3053.3691
 Red. masses --      1.0609                 1.0714                 1.0847
 Frc consts  --      5.7409                 5.8170                 5.9580
 IR Inten    --     13.2356               100.7626                41.4148

                     64                     65                     66
                      A                      A                      A
 Frequencies --   3076.1951              3092.9602              3112.1730
 Red. masses --      1.1055                 1.0980                 1.0869
 Frc consts  --      6.1639                 6.1885                 6.2023
 IR Inten    --     29.5316                31.1546                 9.3366

                     67                     68                     69
                      A                      A                      A
 Frequencies --   3836.1339              3851.1573              3854.8770
 Red. masses --      1.0654                 1.0648                 1.0653
 Frc consts  --      9.2370                 9.3049                 9.3271
 IR Inten    --    151.7033                89.5105                76.5272

                     70                     71                     72
                      A                      A                      A
 Frequencies --   3855.9147              3867.8726              3946.2581
 Red. masses --      1.0653                 1.0656                 1.0669
 Frc consts  --      9.3318                 9.3923                 9.7889
 IR Inten    --     38.8911                64.7478                59.4348

 - Thermochemistry -
 -------------------
 Temperature   298.150 Kelvin.  Pressure   1.00000 Atm.
 Atom     1 has atomic number  6 and mass  12.00000

 Molecular mass:   182.07904 amu.
 Principal axes and moments of inertia in atomic units:
                           1         2         3
     Eigenvalues --  1496.721272749.786743422.41983
           X            0.99994   0.01018  -0.00445
           Y           -0.01008   0.99974   0.02025
           Z            0.00466  -0.02021   0.99978
 This molecule is an asymmetric top.
 Rotational symmetry number  1.
 Warning -- assumption of classical behavior for rotation
           may cause significant error
 Rotational temperatures (Kelvin)      0.05787     0.03150     0.02531
 Rotational constants (GHZ):           1.20580     0.65632     0.52733
 Zero-point vibrational energy     584011.8 (Joules/Mol)
                                  139.58217 (Kcal/Mol)
 Warning -- explicit consideration of  23 degrees of freedom as
           vibrations may cause significant error
 Vibrational temperatures:     74.91   102.77   133.18   167.67   225.28
          (Kelvin)            245.68   267.76   338.23   360.61   397.66
                              409.77   454.67   489.63   518.27   595.27
                              647.42   662.67   671.77   708.28   735.15
                              776.37   811.48   878.61  1032.78  1101.16
                             1233.42  1260.15  1371.16  1385.67  1450.96
                             1520.56  1574.38  1584.88  1602.78  1606.69
                             1624.15  1657.00  1675.73  1744.40  1765.40
                             1816.00  1826.82  1852.53  1860.63  1891.79
                             1949.55  1975.06  1987.08  2012.78  2022.14
                             2034.37  2060.14  2075.64  2101.01  2113.68
                             2115.86  2183.81  2195.84  4323.23  4346.49
                             4360.42  4367.63  4393.12  4425.96  4450.08
                             4477.72  5519.34  5540.96  5546.31  5547.80
                             5565.01  5677.79

 Zero-point correction=                           0.222438 (Hartree/Particle)
 Thermal correction to Energy=                    0.236020
 Thermal correction to Enthalpy=                  0.236964
 Thermal correction to Gibbs Free Energy=         0.182890
 Sum of electronic and zero-point Energies=           -688.256251
 Sum of electronic and thermal Energies=              -688.242669
 Sum of electronic and thermal Enthalpies=            -688.241725
 Sum of electronic and thermal Free Energies=         -688.295799

                     E (Thermal)             CV                S
                      KCal/Mol        Cal/Mol-Kelvin    Cal/Mol-Kelvin
 Total                  148.105             50.789            113.809
 Electronic               0.000              0.000              0.000
 Translational            0.889              2.981             41.504
 Rotational               0.889              2.981             31.022
 Vibrational            146.327             44.827             41.282
 Vibration     1          0.596              1.977              4.737
 Vibration     2          0.598              1.968              4.114
 Vibration     3          0.602              1.954              3.605
 Vibration     4          0.608              1.936              3.157
 Vibration     5          0.620              1.895              2.591
 Vibration     6          0.626              1.878              2.427
 Vibration     7          0.632              1.859              2.266
 Vibration     8          0.655              1.787              1.840
 Vibration     9          0.663              1.762              1.726
 Vibration    10          0.678              1.717              1.556
 Vibration    11          0.683              1.702              1.505
 Vibration    12          0.703              1.643              1.331
 Vibration    13          0.720              1.595              1.211
 Vibration    14          0.735              1.554              1.121
 Vibration    15          0.777              1.440              0.914
 Vibration    16          0.809              1.361              0.796
 Vibration    17          0.818              1.337              0.764
 Vibration    18          0.824              1.323              0.746
 Vibration    19          0.848              1.267              0.678
 Vibration    20          0.866              1.226              0.631
 Vibration    21          0.895              1.162              0.566
 Vibration    22          0.920              1.109              0.516
 Vibration    23          0.970              1.009              0.432

 Optimization completed.
    -- Stationary point found.
 Normal termination of Gaussian 16 at Wed Oct 11 15:51:06 2023.
