 Gaussian 16, Revision C.01,
 Gaussian 16:  ES64L-G16RevC.01  3-Jul-2019

 ---------------------------------------------
 # opt freq wb97xd/Def2TZVPP geom=connectivity
 ---------------------------------------------

 -------------------
 Title Card Required
 -------------------
 Symbolic Z-matrix:
 Charge =  0 Multiplicity = 1

 SCF Done:  E(RwB97XD) =  -688.470996717     A.U. after   14 cycles
 SCF Done:  E(RwB97XD) =  -688.478850170     A.U. after   12 cycles
 SCF Done:  E(RwB97XD) =  -688.479148734     A.U. after   11 cycles
 SCF Done:  E(RwB97XD) =  -688.480656183     A.U. after   11 cycles
 SCF Done:  E(RwB97XD) =  -688.480845252     A.U. after   11 cycles
 SCF Done:  E(RwB97XD) =  -688.481032562     A.U. after   11 cycles
 SCF Done:  E(RwB97XD) =  -688.481222192     A.U. after   11 cycles
 SCF Done:  E(RwB97XD) =  -688.481261026     A.U. after   11 cycles
 SCF Done:  E(RwB97XD) =  -688.481326237     A.U. after   10 cycles
 SCF Done:  E(RwB97XD) =  -688.481347905     A.U. after   10 cycles
 SCF Done:  E(RwB97XD) =  -688.481352371     A.U. after    8 cycles
 SCF Done:  E(RwB97XD) =  -688.481353675     A.U. after    8 cycles
 SCF Done:  E(RwB97XD) =  -688.481354379     A.U. after    8 cycles
 SCF Done:  E(RwB97XD) =  -688.481354848     A.U. after    8 cycles
 SCF Done:  E(RwB97XD) =  -688.481355126     A.U. after    7 cycles
 SCF Done:  E(RwB97XD) =  -688.481355260     A.U. after    7 cycles
 SCF Done:  E(RwB97XD) =  -688.481355389     A.U. after    7 cycles
 Optimization completed.
    -- Stationary point found.
 Normal termination of Gaussian 16 at Wed Oct 11 15:03:21 2023.

 ----------------------------------------------------------------------
 #N Geom=AllCheck Guess=TCheck SCRF=Check GenChk RwB97XD/def2TZVPP Freq
 ----------------------------------------------------------------------

 Structure from the checkpoint file:  "MannitolConformerOpt_27.chk"
 -------------------
 Title Card Required
 -------------------
 Charge =  0 Multiplicity = 1

                         Standard orientation:
 ---------------------------------------------------------------------
 Center     Atomic      Atomic             Coordinates (Angstroms)
 Number     Number       Type             X           Y           Z
 ---------------------------------------------------------------------
      1          6           0       -0.622192   -0.749624    0.166377
      2          6           0        0.499128   -0.033564   -0.589274
      3          6           0       -1.593654    0.152622    0.940897
      4          6           0        1.441427    0.799435    0.284284
      5          1           0        0.051129    0.651500   -1.318813
      6          1           0       -0.181256   -1.447089    0.881090
      7          6           0       -2.167926    1.294169    0.113471
      8          1           0       -1.056615    0.607257    1.776395
      9          6           0        2.386080   -0.047126    1.140110
     10          1           0        0.829215    1.411928    0.950849
     11          1           0       -1.381449    2.022216   -0.112505
     12          1           0       -2.942546    1.786006    0.706548
     13          1           0        1.825993   -0.815941    1.684503
     14          1           0        2.869326    0.597022    1.874143
     15          8           0       -2.716421    0.766001   -1.088606
     16          1           0       -3.150430    1.459598   -1.580686
     17          8           0       -2.611121   -0.634550    1.510971
     18          1           0       -2.849799   -1.304468    0.865788
     19          8           0       -1.337601   -1.572579   -0.749825
     20          1           0       -1.867311   -0.980991   -1.298314
     21          8           0        1.261853   -1.010108   -1.284125
     22          1           0        0.636374   -1.649719   -1.634358
     23          8           0        2.184480    1.696951   -0.505811
     24          1           0        2.983438    1.232123   -0.770393
     25          8           0        3.417435   -0.610132    0.361303
     26          1           0        2.987751   -1.149582   -0.310689
 ---------------------------------------------------------------------

 SCF Done:  E(RwB97XD) =  -688.481355389     A.U. after    1 cycles

 The electronic state is 1-A.
 Alpha  occ. eigenvalues --  -19.28510 -19.26887 -19.26442 -19.25534 -19.24581
 Alpha  occ. eigenvalues --  -19.24530 -10.35323 -10.35126 -10.35123 -10.34442
 Alpha  occ. eigenvalues --  -10.34183 -10.33205  -1.17463  -1.15886  -1.14616
 Alpha  occ. eigenvalues --   -1.13404  -1.12214  -1.11334  -0.90215  -0.85655
 Alpha  occ. eigenvalues --   -0.80906  -0.76789  -0.72049  -0.69119  -0.66129
 Alpha  occ. eigenvalues --   -0.64703  -0.62439  -0.61018  -0.57696  -0.57532
 Alpha  occ. eigenvalues --   -0.56562  -0.55815  -0.54755  -0.54238  -0.51948
 Alpha  occ. eigenvalues --   -0.50241  -0.50015  -0.48781  -0.46984  -0.44862
 Alpha  occ. eigenvalues --   -0.43157  -0.42634  -0.41480  -0.40736  -0.39552
 Alpha  occ. eigenvalues --   -0.37884  -0.37378  -0.36255  -0.35158
 Alpha virt. eigenvalues --    0.08085   0.10773   0.11492   0.12841   0.13784
 Alpha virt. eigenvalues --    0.14536   0.15933   0.16570   0.17851   0.18344
 Alpha virt. eigenvalues --    0.19257   0.19701   0.20542   0.21706   0.22147

 Mulliken charges:
               1
     1  C    0.112475
     2  C    0.040718
     3  C    0.170989
     4  C    0.144760
     5  H    0.098743
     6  H    0.103879
     7  C   -0.058356
     8  H    0.059558
     9  C    0.007512
    10  H    0.066445
    11  H    0.089039
    12  H    0.110936
    13  H    0.068959
    14  H    0.088101
    15  O   -0.333343
    16  H    0.155366
    17  O   -0.359331
    18  H    0.188030
    19  O   -0.417406
    20  H    0.207790
    21  O   -0.379649
    22  H    0.185534
    23  O   -0.367916
    24  H    0.189765
    25  O   -0.378013
    26  H    0.205416
 Sum of Mulliken charges =  -0.00000

 Dipole moment (field-independent basis, Debye):
    X=             -3.0122    Y=              1.2668    Z=             -0.9953  Tot=              3.4160
 Quadrupole moment (field-independent basis, Debye-Ang):
   XX=            -79.5123   YY=            -72.0212   ZZ=            -71.1656
   XY=             -7.4813   XZ=              6.9675   YZ=              1.5336

  Exact polarizability:     105.957      -1.076      89.828       0.669       1.041      88.131
 Approx polarizability:     104.717       0.251     102.984       0.073       2.145     101.740

                      1                      2                      3
                      A                      A                      A
 Frequencies --     34.6205                62.1130                99.6426
 Red. masses --      5.1899                 5.4424                 5.6872
 Frc consts  --      0.0037                 0.0124                 0.0333
 IR Inten    --      1.4590                 4.5892                 0.7178

                      4                      5                      6
                      A                      A                      A
 Frequencies --    142.9539               168.8203               189.6722
 Red. masses --      5.3182                 3.7343                 4.5287
 Frc consts  --      0.0640                 0.0627                 0.0960
 IR Inten    --      2.1368                 2.2046                11.6204

                      7                      8                      9
                      A                      A                      A
 Frequencies --    215.3718               229.3216               251.9946
 Red. masses --      1.3601                 2.3663                 4.8318
 Frc consts  --      0.0372                 0.0733                 0.1808
 IR Inten    --     67.4283                42.0439                 8.3102

                     10                     11                     12
                      A                      A                      A
 Frequencies --    271.5873               313.1598               315.4928
 Red. masses --      5.3184                 3.7495                 3.4241
 Frc consts  --      0.2311                 0.2166                 0.2008
 IR Inten    --      9.8587                17.6425                17.7083

                     13                     14                     15
                      A                      A                      A
 Frequencies --    342.5566               361.4397               398.5762
 Red. masses --      4.3741                 3.5499                 1.3872
 Frc consts  --      0.3024                 0.2732                 0.1298
 IR Inten    --      6.4554                 0.6292                42.1911

                     16                     17                     18
                      A                      A                      A
 Frequencies --    424.2840               432.7602               482.1537
 Red. masses --      1.4371                 2.3275                 1.3156
 Frc consts  --      0.1524                 0.2568                 0.1802
 IR Inten    --     75.6586                13.9737                43.6254

                     19                     20                     21
                      A                      A                      A
 Frequencies --    488.8612               550.1730               579.1273
 Red. masses --      2.3226                 2.8536                 3.1591
 Frc consts  --      0.3270                 0.5089                 0.6243
 IR Inten    --     10.8170                22.9824                 4.3914

                     22                     23                     24
                      A                      A                      A
 Frequencies --    641.9205               676.7472               798.2840
 Red. masses --      1.1407                 1.1132                 3.8484
 Frc consts  --      0.2769                 0.3004                 1.4449
 IR Inten    --    164.6151               177.1032                18.5587

                     25                     26                     27
                      A                      A                      A
 Frequencies --    804.2478               830.2216               841.6280
 Red. masses --      3.8988                 2.8944                 3.2138
 Frc consts  --      1.4858                 1.1754                 1.3413
 IR Inten    --     26.0689                10.8269                34.5149

                     28                     29                     30
                      A                      A                      A
 Frequencies --    957.3335               979.3505               992.1896
 Red. masses --      2.6807                 1.9199                 2.3848
 Frc consts  --      1.4475                 1.0850                 1.3832
 IR Inten    --      4.3281                 8.4118                 4.2768

                     31                     32                     33
                      A                      A                      A
 Frequencies --   1003.8823              1071.1412              1109.1155
 Red. masses --      2.2092                 4.1824                 4.4120
 Frc consts  --      1.3117                 2.8273                 3.1977
 IR Inten    --     30.1526                78.1345               113.2791

                     34                     35                     36
                      A                      A                      A
 Frequencies --   1122.7365              1128.6176              1146.4710
 Red. masses --      2.3906                 3.1186                 3.5912
 Frc consts  --      1.7755                 2.3405                 2.7811
 IR Inten    --    189.7534                49.7055                 2.3893

                     37                     38                     39
                      A                      A                      A
 Frequencies --   1158.9577              1174.0940              1213.1003
 Red. masses --      2.3269                 3.0425                 1.1033
 Frc consts  --      1.8414                 2.4711                 0.9566
 IR Inten    --     58.3176                19.9073                67.2858

                     40                     41                     42
                      A                      A                      A
 Frequencies --   1226.2713              1250.4604              1267.1432
 Red. masses --      1.1129                 1.1693                 1.1713
 Frc consts  --      0.9860                 1.0772                 1.1080
 IR Inten    --     69.8117                31.3950                 5.1131

                     43                     44                     45
                      A                      A                      A
 Frequencies --   1295.5239              1299.2165              1312.7091
 Red. masses --      1.4297                 1.1722                 1.3486
 Frc consts  --      1.4138                 1.1657                 1.3692
 IR Inten    --      5.8462                55.5133                40.4836

                     46                     47                     48
                      A                      A                      A
 Frequencies --   1335.4380              1381.6670              1391.6336
 Red. masses --      1.4191                 1.3612                 1.3008
 Frc consts  --      1.4911                 1.5310                 1.4843
 IR Inten    --      0.6995                 1.6971                 2.5606

                     49                     50                     51
                      A                      A                      A
 Frequencies --   1396.8767              1419.4297              1433.7146
 Red. masses --      1.4137                 1.2353                 1.3448
 Frc consts  --      1.6252                 1.4664                 1.6287
 IR Inten    --      8.3324                26.7746                36.3131

                     52                     53                     54
                      A                      A                      A
 Frequencies --   1440.8210              1452.0541              1461.6335
 Red. masses --      1.4402                 1.3323                 1.4634
 Frc consts  --      1.7615                 1.6551                 1.8421
 IR Inten    --     15.9638                83.5859                22.2637

                     55                     56                     57
                      A                      A                      A
 Frequencies --   1465.7249              1474.1044              1513.1103
 Red. masses --      1.2616                 1.2434                 1.0842
 Frc consts  --      1.5969                 1.5919                 1.4625
 IR Inten    --     56.7238                34.6768                 9.7349

                     58                     59                     60
                      A                      A                      A
 Frequencies --   1518.2567              3026.0768              3027.0556
 Red. masses --      1.0821                 1.0687                 1.0781
 Frc consts  --      1.4696                 5.7661                 5.8202
 IR Inten    --     12.5268                39.3473                20.5217

                     61                     62                     63
                      A                      A                      A
 Frequencies --   3032.7859              3069.6676              3083.1282
 Red. masses --      1.0656                 1.0853                 1.0845
 Frc consts  --      5.7749                 6.0251                 6.0739
 IR Inten    --     33.1997                43.6222                24.7505

                     64                     65                     66
                      A                      A                      A
 Frequencies --   3088.0208              3092.2435              3117.0745
 Red. masses --      1.1036                 1.0868                 1.0959
 Frc consts  --      6.2007                 6.1230                 6.2735
 IR Inten    --     27.2872                34.4047                28.8898

                     67                     68                     69
                      A                      A                      A
 Frequencies --   3776.4324              3813.6496              3844.7490
 Red. masses --      1.0655                 1.0653                 1.0652
 Frc consts  --      8.9530                 9.1286                 9.2776
 IR Inten    --    161.7892               130.4610                81.8722

                     70                     71                     72
                      A                      A                      A
 Frequencies --   3850.9467              3864.8169              3945.7361
 Red. masses --      1.0652                 1.0654                 1.0669
 Frc consts  --      9.3075                 9.3760                 9.7866
 IR Inten    --     35.4517                68.9996                64.0085

 - Thermochemistry -
 -------------------
 Temperature   298.150 Kelvin.  Pressure   1.00000 Atm.
 Atom     1 has atomic number  6 and mass  12.00000

 Molecular mass:   182.07904 amu.
 Principal axes and moments of inertia in atomic units:
                           1         2         3
     Eigenvalues --  1188.663073382.104253494.66160
           X            0.99990  -0.01137   0.00869
           Y            0.01110   0.99948   0.03041
           Z           -0.00903  -0.03031   0.99950
 This molecule is an asymmetric top.
 Rotational symmetry number  1.
 Warning -- assumption of classical behavior for rotation
           may cause significant error
 Rotational temperatures (Kelvin)      0.07287     0.02561     0.02478
 Rotational constants (GHZ):           1.51830     0.53361     0.51643
 Zero-point vibrational energy     586008.0 (Joules/Mol)
                                  140.05928 (Kcal/Mol)
 Warning -- explicit consideration of  21 degrees of freedom as
           vibrations may cause significant error
 Vibrational temperatures:     49.81    89.37   143.36   205.68   242.89
          (Kelvin)            272.90   309.87   329.94   362.56   390.75
                              450.57   453.92   492.86   520.03   573.46
                              610.45   622.65   693.71   703.36   791.58
                              833.23   923.58   973.69  1148.55  1157.13
                             1194.50  1210.92  1377.39  1409.07  1427.54
                             1444.36  1541.13  1595.77  1615.37  1623.83
                             1649.52  1667.48  1689.26  1745.38  1764.33
                             1799.13  1823.14  1863.97  1869.28  1888.70
                             1921.40  1987.91  2002.25  2009.79  2042.24
                             2062.80  2073.02  2089.18  2102.96  2108.85
                             2120.91  2177.03  2184.43  4353.85  4355.26
                             4363.50  4416.57  4435.93  4442.97  4449.05
                             4484.77  5433.44  5486.99  5531.74  5540.65
                             5560.61  5677.03

 Zero-point correction=                           0.223199 (Hartree/Particle)
 Thermal correction to Energy=                    0.236556
 Thermal correction to Enthalpy=                  0.237500
 Thermal correction to Gibbs Free Energy=         0.183636
 Sum of electronic and zero-point Energies=           -688.258157
 Sum of electronic and thermal Energies=              -688.244800
 Sum of electronic and thermal Enthalpies=            -688.243855
 Sum of electronic and thermal Free Energies=         -688.297719

                     E (Thermal)             CV                S
                      KCal/Mol        Cal/Mol-Kelvin    Cal/Mol-Kelvin
 Total                  148.441             50.190            113.366
 Electronic               0.000              0.000              0.000
 Translational            0.889              2.981             41.504
 Rotational               0.889              2.981             31.019
 Vibrational            146.664             44.228             40.843
 Vibration     1          0.594              1.983              5.545
 Vibration     2          0.597              1.972              4.389
 Vibration     3          0.604              1.949              3.461
 Vibration     4          0.616              1.910              2.764
 Vibration     5          0.625              1.881              2.449
 Vibration     6          0.633              1.854              2.231
 Vibration     7          0.645              1.818              1.998
 Vibration     8          0.652              1.796              1.884
 Vibration     9          0.664              1.759              1.717
 Vibration    10          0.675              1.726              1.586
 Vibration    11          0.701              1.649              1.346
 Vibration    12          0.703              1.644              1.333
 Vibration    13          0.722              1.590              1.200
 Vibration    14          0.736              1.552              1.116
 Vibration    15          0.765              1.473              0.968
 Vibration    16          0.786              1.417              0.878
 Vibration    17          0.794              1.399              0.850
 Vibration    18          0.838              1.290              0.704
 Vibration    19          0.845              1.275              0.687
 Vibration    20          0.905              1.139              0.544
 Vibration    21          0.936              1.076              0.487

                           ! Non-Optimized Parameters !
 Normal termination of Gaussian 16 at Wed Oct 11 15:47:00 2023.
