 Gaussian 16, Revision C.01,
 Gaussian 16:  ES64L-G16RevC.01  3-Jul-2019

 ---------------------------------------------
 # opt freq wb97xd/def2tzvpp geom=connectivity
 ---------------------------------------------

 --------------------------------
 Mannitol Conformer Optimziations
 --------------------------------
 Symbolic Z-matrix:
 Charge =  0 Multiplicity = 1

 SCF Done:  E(RwB97XD) =  -688.471941832     A.U. after   14 cycles
 SCF Done:  E(RwB97XD) =  -688.479233268     A.U. after   12 cycles
 SCF Done:  E(RwB97XD) =  -688.478529667     A.U. after   12 cycles
 SCF Done:  E(RwB97XD) =  -688.480270268     A.U. after   11 cycles
 SCF Done:  E(RwB97XD) =  -688.480756112     A.U. after   11 cycles
 SCF Done:  E(RwB97XD) =  -688.480961946     A.U. after   11 cycles
 SCF Done:  E(RwB97XD) =  -688.480983666     A.U. after   10 cycles
 SCF Done:  E(RwB97XD) =  -688.481000403     A.U. after   10 cycles
 SCF Done:  E(RwB97XD) =  -688.481018367     A.U. after    9 cycles
 SCF Done:  E(RwB97XD) =  -688.481033444     A.U. after   10 cycles
 SCF Done:  E(RwB97XD) =  -688.481036580     A.U. after    8 cycles
 SCF Done:  E(RwB97XD) =  -688.481039747     A.U. after    9 cycles
 SCF Done:  E(RwB97XD) =  -688.481040151     A.U. after    8 cycles
 SCF Done:  E(RwB97XD) =  -688.481040242     A.U. after    7 cycles
 Optimization completed.
    -- Stationary point found.
 Normal termination of Gaussian 16 at Wed Sep 27 11:43:20 2023.

 ----------------------------------------------------------------------
 #N Geom=AllCheck Guess=TCheck SCRF=Check GenChk RwB97XD/def2TZVPP Freq
 ----------------------------------------------------------------------

 Structure from the checkpoint file:  "MannitolConformerOpt_5.chk"
 --------------------------------
 Mannitol Conformer Optimziations
 --------------------------------
 Charge =  0 Multiplicity = 1

                         Standard orientation:
 ---------------------------------------------------------------------
 Center     Atomic      Atomic             Coordinates (Angstroms)
 Number     Number       Type             X           Y           Z
 ---------------------------------------------------------------------
      1          6           0        0.502614    0.742362    0.231453
      2          6           0       -0.800229    0.670087   -0.571648
      3          6           0        1.624319   -0.125393   -0.323899
      4          6           0       -1.510846   -0.684277   -0.642558
      5          1           0       -0.571303    0.983569   -1.593508
      6          1           0        0.309484    0.424323    1.265460
      7          6           0        2.956732    0.201991    0.327782
      8          1           0        1.716828    0.056129   -1.403130
      9          6           0       -1.824558   -1.296083    0.716648
     10          1           0       -0.873318   -1.383638   -1.182399
     11          1           0        3.263013    1.215097    0.066325
     12          1           0        2.854054    0.127685    1.416090
     13          1           0       -0.910940   -1.453396    1.285264
     14          1           0       -2.298921   -2.268221    0.562121
     15          8           0        3.876328   -0.765102   -0.159619
     16          1           0        4.698610   -0.691314    0.319713
     17          8           0        1.297608   -1.478864   -0.083723
     18          1           0        2.109016   -1.978198   -0.202126
     19          8           0        0.956463    2.078225    0.214710
     20          1           0        0.174103    2.630246    0.293756
     21          8           0       -1.693314    1.664024   -0.069345
     22          1           0       -2.070041    1.305409    0.745219
     23          8           0       -2.714030   -0.532521   -1.379780
     24          1           0       -2.986124    0.383906   -1.291989
     25          8           0       -2.667884   -0.454512    1.499981
     26          1           0       -3.544022   -0.493718    1.114751
 ---------------------------------------------------------------------

 SCF Done:  E(RwB97XD) =  -688.481040242     A.U. after    1 cycles

 The electronic state is 1-A.
 Alpha  occ. eigenvalues --  -19.26753 -19.26572 -19.26291 -19.25415 -19.25064
 Alpha  occ. eigenvalues --  -19.24963 -10.34272 -10.34125 -10.34059 -10.33473
 Alpha  occ. eigenvalues --  -10.33370 -10.33023  -1.16510  -1.15437  -1.14197
 Alpha  occ. eigenvalues --   -1.12763  -1.12384  -1.11451  -0.88893  -0.85594
 Alpha  occ. eigenvalues --   -0.80671  -0.75467  -0.70987  -0.68706  -0.64142
 Alpha  occ. eigenvalues --   -0.63108  -0.62805  -0.60147  -0.59760  -0.57997
 Alpha  occ. eigenvalues --   -0.56281  -0.55332  -0.53397  -0.51907  -0.50764
 Alpha  occ. eigenvalues --   -0.49778  -0.48909  -0.47180  -0.45686  -0.45167
 Alpha  occ. eigenvalues --   -0.44948  -0.42088  -0.41711  -0.39131  -0.38918
 Alpha  occ. eigenvalues --   -0.37822  -0.36990  -0.35993  -0.35024
 Alpha virt. eigenvalues --    0.09293   0.09995   0.12582   0.13385   0.13836
 Alpha virt. eigenvalues --    0.15749   0.16617   0.16858   0.17835   0.19207
 Alpha virt. eigenvalues --    0.19918   0.20468   0.21187   0.21897   0.22409

 Mulliken charges:
               1
     1  C    0.066809
     2  C    0.117954
     3  C    0.157871
     4  C    0.145257
     5  H    0.098171
     6  H    0.071284
     7  C   -0.027346
     8  H    0.058638
     9  C    0.020414
    10  H    0.063629
    11  H    0.098564
    12  H    0.085570
    13  H    0.077857
    14  H    0.092025
    15  O   -0.343901
    16  H    0.170744
    17  O   -0.362744
    18  H    0.180420
    19  O   -0.360257
    20  H    0.188999
    21  O   -0.426546
    22  H    0.203639
    23  O   -0.379012
    24  H    0.188356
    25  O   -0.357523
    26  H    0.171128
 Sum of Mulliken charges =   0.00000

 Dipole moment (field-independent basis, Debye):
    X=              1.2701    Y=             -0.2788    Z=              1.2593  Tot=              1.8101
 Quadrupole moment (field-independent basis, Debye-Ang):
   XX=            -59.5536   YY=            -74.1486   ZZ=            -75.9080
   XY=             -2.8437   XZ=              1.5474   YZ=             -1.2021

  Exact polarizability:     109.937      -0.206      93.180       0.569      -0.189      83.240
 Approx polarizability:     106.420      -2.271     104.690      -0.115       0.531      98.134

                      1                      2                      3
                      A                      A                      A
 Frequencies --     45.1977                58.3838                91.0624
 Red. masses --      5.3132                 4.9089                 5.4414
 Frc consts  --      0.0064                 0.0099                 0.0266
 IR Inten    --      2.3224                 1.7051                 3.3183

                      4                      5                      6
                      A                      A                      A
 Frequencies --    123.5172               132.5670               164.4663
 Red. masses --      5.4007                 3.3088                 5.0481
 Frc consts  --      0.0485                 0.0343                 0.0805
 IR Inten    --      2.3625                 1.7299                28.4811

                      7                      8                      9
                      A                      A                      A
 Frequencies --    209.4727               240.7351               245.1732
 Red. masses --      3.9643                 1.5867                 2.3990
 Frc consts  --      0.1025                 0.0542                 0.0850
 IR Inten    --      5.5633                67.9658                39.0786

                     10                     11                     12
                      A                      A                      A
 Frequencies --    285.3214               294.4093               317.9030
 Red. masses --      4.0673                 4.0422                 2.5756
 Frc consts  --      0.1951                 0.2064                 0.1534
 IR Inten    --      6.1119                19.4974                35.3999

                     13                     14                     15
                      A                      A                      A
 Frequencies --    343.4007               366.0183               380.5436
 Red. masses --      5.1532                 2.9217                 1.8995
 Frc consts  --      0.3580                 0.2306                 0.1621
 IR Inten    --      4.6338                46.4304               111.5649

                     16                     17                     18
                      A                      A                      A
 Frequencies --    412.4626               436.5160               454.1139
 Red. masses --      1.9783                 1.1275                 1.3061
 Frc consts  --      0.1983                 0.1266                 0.1587
 IR Inten    --     15.8415                39.8438                66.9287

                     19                     20                     21
                      A                      A                      A
 Frequencies --    505.8466               512.5077               528.2530
 Red. masses --      1.4569                 2.4629                 2.7312
 Frc consts  --      0.2196                 0.3812                 0.4491
 IR Inten    --    114.2440                13.9868                 6.0411

                     22                     23                     24
                      A                      A                      A
 Frequencies --    584.8806               622.1034               728.3531
 Red. masses --      3.2265                 3.2384                 1.1232
 Frc consts  --      0.6503                 0.7384                 0.3511
 IR Inten    --      9.1227                31.1268               101.2089

                     25                     26                     27
                      A                      A                      A
 Frequencies --    811.8092               845.5061               910.8595
 Red. masses --      3.9293                 2.9777                 2.3819
 Frc consts  --      1.5257                 1.2542                 1.1643
 IR Inten    --     17.0277                29.3316                15.5726

                     28                     29                     30
                      A                      A                      A
 Frequencies --    958.9196               979.5178              1030.3320
 Red. masses --      2.3996                 2.0167                 3.1149
 Frc consts  --      1.3000                 1.1401                 1.9483
 IR Inten    --      1.8889                34.1370                43.9412

                     31                     32                     33
                      A                      A                      A
 Frequencies --   1061.5794              1074.1368              1097.1407
 Red. masses --      2.7039                 2.7825                 3.4876
 Frc consts  --      1.7953                 1.8915                 2.4734
 IR Inten    --     33.0634                75.0040               125.6762

                     34                     35                     36
                      A                      A                      A
 Frequencies --   1104.5837              1121.7126              1132.0897
 Red. masses --      3.5104                 2.4348                 3.1205
 Frc consts  --      2.5235                 1.8050                 2.3563
 IR Inten    --     36.9622               159.2736                61.3629

                     37                     38                     39
                      A                      A                      A
 Frequencies --   1139.8275              1162.3611              1219.5925
 Red. masses --      2.6359                 2.6418                 1.2043
 Frc consts  --      2.0177                 2.1029                 1.0554
 IR Inten    --     21.2257                18.1594                25.6673

                     40                     41                     42
                      A                      A                      A
 Frequencies --   1228.4544              1248.5206              1272.7330
 Red. masses --      1.1407                 1.2446                 1.2836
 Frc consts  --      1.0142                 1.1430                 1.2250
 IR Inten    --     41.0904                55.1478                18.0438

                     43                     44                     45
                      A                      A                      A
 Frequencies --   1288.1119              1298.6321              1315.3425
 Red. masses --      1.1844                 1.3084                 1.3323
 Frc consts  --      1.1579                 1.3000                 1.3581
 IR Inten    --      4.9046                22.0548                35.3141

                     46                     47                     48
                      A                      A                      A
 Frequencies --   1320.2560              1379.0268              1382.0775
 Red. masses --      1.1587                 1.3281                 1.2304
 Frc consts  --      1.1899                 1.4880                 1.3847
 IR Inten    --     56.7094                50.0957                45.5922

                     49                     50                     51
                      A                      A                      A
 Frequencies --   1385.6442              1396.4090              1410.1111
 Red. masses --      1.3129                 1.2164                 1.4129
 Frc consts  --      1.4852                 1.3976                 1.6553
 IR Inten    --     22.4472                 6.1580                 4.2985

                     52                     53                     54
                      A                      A                      A
 Frequencies --   1415.6180              1439.3714              1454.1581
 Red. masses --      1.3238                 1.3864                 1.4751
 Frc consts  --      1.5630                 1.6923                 1.8378
 IR Inten    --      4.0742                27.0421                 4.5664

                     55                     56                     57
                      A                      A                      A
 Frequencies --   1470.8490              1493.5382              1518.0361
 Red. masses --      1.2503                 1.9136                 1.0806
 Frc consts  --      1.5937                 2.5150                 1.4672
 IR Inten    --     56.9646                 2.4610                 8.8802

                     58                     59                     60
                      A                      A                      A
 Frequencies --   1518.5589              2997.0547              3009.4581
 Red. masses --      1.0861                 1.0807                 1.0836
 Frc consts  --      1.4756                 5.7192                 5.7825
 IR Inten    --      5.4654                 3.7083                39.9768

                     61                     62                     63
                      A                      A                      A
 Frequencies --   3031.3667              3062.6064              3072.5270
 Red. masses --      1.0657                 1.0681                 1.0861
 Frc consts  --      5.7700                 5.9025                 6.0408
 IR Inten    --     51.5179                35.1304                30.0672

                     64                     65                     66
                      A                      A                      A
 Frequencies --   3113.9434              3119.7180              3150.6468
 Red. masses --      1.0999                 1.0863                 1.0993
 Frc consts  --      6.2840                 6.2292                 6.4291
 IR Inten    --     22.3561                11.0388                11.5489

                     67                     68                     69
                      A                      A                      A
 Frequencies --   3743.7050              3850.6387              3859.8155
 Red. masses --      1.0658                 1.0653                 1.0657
 Frc consts  --      8.8010                 9.3067                 9.3547
 IR Inten    --    167.4595                47.1996                87.3467

                     70                     71                     72
                      A                      A                      A
 Frequencies --   3862.3828              3900.5609              3949.1498
 Red. masses --      1.0655                 1.0658                 1.0668
 Frc consts  --      9.3655                 9.5542                 9.8027
 IR Inten    --     81.4315                44.3804                58.3710

 - Thermochemistry -
 -------------------
 Temperature   298.150 Kelvin.  Pressure   1.00000 Atm.
 Atom     1 has atomic number  6 and mass  12.00000

 Molecular mass:   182.07904 amu.
 Principal axes and moments of inertia in atomic units:
                           1         2         3
     Eigenvalues --  1180.960243418.632573876.28179
           X            0.99999   0.00422   0.00157
           Y           -0.00421   0.99993  -0.01144
           Z           -0.00162   0.01144   0.99993
 This molecule is an asymmetric top.
 Rotational symmetry number  1.
 Warning -- assumption of classical behavior for rotation
           may cause significant error
 Rotational temperatures (Kelvin)      0.07334     0.02534     0.02234
 Rotational constants (GHZ):           1.52820     0.52791     0.46559
 Zero-point vibrational energy     584329.1 (Joules/Mol)
                                  139.65801 (Kcal/Mol)
 Warning -- explicit consideration of  22 degrees of freedom as
           vibrations may cause significant error
 Vibrational temperatures:     65.03    84.00   131.02   177.71   190.73
          (Kelvin)            236.63   301.38   346.36   352.75   410.51
                              423.59   457.39   494.08   526.62   547.52
                              593.44   628.05   653.37   727.80   737.38
                              760.04   841.51   895.07  1047.94  1168.01
                             1216.49  1310.52  1379.67  1409.31  1482.42
                             1527.38  1545.44  1578.54  1589.25  1613.89
                             1628.82  1639.96  1672.38  1754.72  1767.47
                             1796.34  1831.18  1853.31  1868.44  1892.48
                             1899.55  1984.11  1988.50  1993.63  2009.12
                             2028.84  2036.76  2070.93  2092.21  2116.22
                             2148.87  2184.12  2184.87  4312.09  4329.94
                             4361.46  4406.41  4420.68  4480.27  4488.58
                             4533.08  5386.36  5540.21  5553.41  5557.11
                             5612.04  5681.95

 Zero-point correction=                           0.222559 (Hartree/Particle)
 Thermal correction to Energy=                    0.236203
 Thermal correction to Enthalpy=                  0.237148
 Thermal correction to Gibbs Free Energy=         0.182633
 Sum of electronic and zero-point Energies=           -688.258481
 Sum of electronic and thermal Energies=              -688.244837
 Sum of electronic and thermal Enthalpies=            -688.243893
 Sum of electronic and thermal Free Energies=         -688.298407

                     E (Thermal)             CV                S
                      KCal/Mol        Cal/Mol-Kelvin    Cal/Mol-Kelvin
 Total                  148.220             50.769            114.736
 Electronic               0.000              0.000              0.000
 Translational            0.889              2.981             41.504
 Rotational               0.889              2.981             31.126
 Vibrational            146.442             44.807             42.105
 Vibration     1          0.595              1.979              5.017
 Vibration     2          0.596              1.974              4.511
 Vibration     3          0.602              1.956              3.637
 Vibration     4          0.610              1.929              3.045
 Vibration     5          0.613              1.921              2.908
 Vibration     6          0.623              1.886              2.498
 Vibration     7          0.642              1.826              2.048
 Vibration     8          0.658              1.778              1.797
 Vibration     9          0.660              1.771              1.765
 Vibration    10          0.683              1.701              1.502
 Vibration    11          0.689              1.684              1.448
 Vibration    12          0.704              1.639              1.321
 Vibration    13          0.722              1.589              1.196
 Vibration    14          0.739              1.542              1.096
 Vibration    15          0.750              1.512              1.037
 Vibration    16          0.776              1.443              0.918
 Vibration    17          0.797              1.391              0.838
 Vibration    18          0.813              1.352              0.783
 Vibration    19          0.861              1.237              0.644
 Vibration    20          0.868              1.222              0.628
 Vibration    21          0.883              1.187              0.591
 Vibration    22          0.942              1.064              0.476

 Optimization completed.
    -- Stationary point found.
 Normal termination of Gaussian 16 at Wed Sep 27 12:24:10 2023.
