 Gaussian 16, Revision C.01,
 Gaussian 16:  ES64L-G16RevC.01  3-Jul-2019

 ---------------------------------------------
 # opt freq wb97xd/Def2TZVPP geom=connectivity
 ---------------------------------------------

 -------------------
 Title Card Required
 -------------------
 Symbolic Z-matrix:
 Charge =  0 Multiplicity = 1

 SCF Done:  E(RwB97XD) =  -688.464901617     A.U. after   14 cycles
 SCF Done:  E(RwB97XD) =  -688.474057891     A.U. after   12 cycles
 SCF Done:  E(RwB97XD) =  -688.474695666     A.U. after   12 cycles
 SCF Done:  E(RwB97XD) =  -688.475094087     A.U. after   12 cycles
 SCF Done:  E(RwB97XD) =  -688.475543311     A.U. after   12 cycles
 SCF Done:  E(RwB97XD) =  -688.475602868     A.U. after   10 cycles
 SCF Done:  E(RwB97XD) =  -688.475662059     A.U. after   11 cycles
 SCF Done:  E(RwB97XD) =  -688.475688863     A.U. after   10 cycles
 SCF Done:  E(RwB97XD) =  -688.475703524     A.U. after   10 cycles
 SCF Done:  E(RwB97XD) =  -688.475714455     A.U. after    9 cycles
 SCF Done:  E(RwB97XD) =  -688.475720499     A.U. after    9 cycles
 SCF Done:  E(RwB97XD) =  -688.475721821     A.U. after    8 cycles
 SCF Done:  E(RwB97XD) =  -688.475722648     A.U. after    8 cycles
 SCF Done:  E(RwB97XD) =  -688.475723386     A.U. after    8 cycles
 SCF Done:  E(RwB97XD) =  -688.475723690     A.U. after    7 cycles
 SCF Done:  E(RwB97XD) =  -688.475723832     A.U. after    7 cycles
 SCF Done:  E(RwB97XD) =  -688.475723880     A.U. after    6 cycles
 Optimization completed.
    -- Stationary point found.
 Normal termination of Gaussian 16 at Wed Oct 11 16:34:41 2023.

 ----------------------------------------------------------------------
 #N Geom=AllCheck Guess=TCheck SCRF=Check GenChk RwB97XD/def2TZVPP Freq
 ----------------------------------------------------------------------

 Structure from the checkpoint file:  "MannitolConformerOpt_47.chk"
 -------------------
 Title Card Required
 -------------------
 Charge =  0 Multiplicity = 1

                         Standard orientation:
 ---------------------------------------------------------------------
 Center     Atomic      Atomic             Coordinates (Angstroms)
 Number     Number       Type             X           Y           Z
 ---------------------------------------------------------------------
      1          6           0        0.794876    0.766874    0.429985
      2          6           0       -0.355404    0.741405   -0.567244
      3          6           0        1.596357   -0.526108    0.574316
      4          6           0       -1.432698   -0.303456   -0.296675
      5          1           0        0.049772    0.548230   -1.565244
      6          1           0        0.390377    1.004344    1.419899
      7          6           0        2.262866   -1.010058   -0.708630
      8          1           0        0.932506   -1.317910    0.938480
      9          6           0       -1.996376   -0.275916    1.121079
     10          1           0       -1.022499   -1.292549   -0.498809
     11          1           0        3.088915   -1.679969   -0.437987
     12          1           0        2.681960   -0.153308   -1.243939
     13          1           0       -2.317351    0.743379    1.368160
     14          1           0       -1.234059   -0.572832    1.843910
     15          8           0        1.300767   -1.696735   -1.480198
     16          1           0        1.622048   -1.800881   -2.373443
     17          8           0        2.580754   -0.209170    1.547707
     18          1           0        3.105860   -0.985185    1.737592
     19          8           0        1.636183    1.827044    0.005567
     20          1           0        2.354217    1.897610    0.636399
     21          8           0       -1.004603    2.003050   -0.555535
     22          1           0       -0.328068    2.674993   -0.652035
     23          8           0       -2.494526   -0.126355   -1.220695
     24          1           0       -2.646135    0.820422   -1.286949
     25          8           0       -3.057341   -1.190803    1.246583
     26          1           0       -3.585134   -1.099030    0.449543
 ---------------------------------------------------------------------

 SCF Done:  E(RwB97XD) =  -688.475723880     A.U. after    1 cycles

 The electronic state is 1-A.
 Alpha  occ. eigenvalues --  -19.27525 -19.26903 -19.26501 -19.25569 -19.24671
 Alpha  occ. eigenvalues --  -19.23158 -10.35345 -10.34639 -10.34559 -10.33900
 Alpha  occ. eigenvalues --  -10.32889 -10.31667  -1.16868  -1.15206  -1.14547
 Alpha  occ. eigenvalues --   -1.13546  -1.12013  -1.10266  -0.89782  -0.85050
 Alpha  occ. eigenvalues --   -0.80111  -0.76107  -0.71889  -0.68437  -0.65313
 Alpha  occ. eigenvalues --   -0.63799  -0.61172  -0.60589  -0.59185  -0.57710
 Alpha  occ. eigenvalues --   -0.56327  -0.54311  -0.53909  -0.52421  -0.51800
 Alpha  occ. eigenvalues --   -0.50525  -0.48250  -0.47344  -0.45880  -0.44684
 Alpha  occ. eigenvalues --   -0.44138  -0.41687  -0.41067  -0.38875  -0.38302
 Alpha  occ. eigenvalues --   -0.37767  -0.37365  -0.37037  -0.33754
 Alpha virt. eigenvalues --    0.08605   0.09317   0.11826   0.13162   0.13705
 Alpha virt. eigenvalues --    0.15622   0.15961   0.17201   0.17992   0.18921
 Alpha virt. eigenvalues --    0.19585   0.20404   0.20568   0.21758   0.22424

 Mulliken charges:
               1
     1  C    0.079719
     2  C    0.101969
     3  C    0.091823
     4  C    0.169535
     5  H    0.084224
     6  H    0.107926
     7  C   -0.019925
     8  H    0.082267
     9  C    0.039079
    10  H    0.077731
    11  H    0.063082
    12  H    0.090813
    13  H    0.076655
    14  H    0.042615
    15  O   -0.321367
    16  H    0.169790
    17  O   -0.346218
    18  H    0.166782
    19  O   -0.379560
    20  H    0.186232
    21  O   -0.373787
    22  H    0.182809
    23  O   -0.392409
    24  H    0.194460
    25  O   -0.360360
    26  H    0.186111
 Sum of Mulliken charges =  -0.00000

 Dipole moment (field-independent basis, Debye):
    X=              4.7695    Y=              0.1355    Z=             -0.9341  Tot=              4.8620
 Quadrupole moment (field-independent basis, Debye-Ang):
   XX=            -69.6220   YY=            -72.1033   ZZ=            -71.1093
   XY=             -9.0248   XZ=              1.8549   YZ=              1.6260

  Exact polarizability:     105.608       0.203      90.822       2.232      -0.110      89.077
 Approx polarizability:     105.533       1.501     102.740       3.701      -0.538     100.742

                      1                      2                      3
                      A                      A                      A
 Frequencies --     61.2714                70.0875                91.8423
 Red. masses --      5.2299                 5.7335                 3.7728
 Frc consts  --      0.0116                 0.0166                 0.0187
 IR Inten    --      0.4213                 1.4343                 2.5899

                      4                      5                      6
                      A                      A                      A
 Frequencies --    112.8474               136.0211               156.0285
 Red. masses --      4.6136                 5.7227                 3.7160
 Frc consts  --      0.0346                 0.0624                 0.0533
 IR Inten    --      6.6910                12.2419                 3.4428

                      7                      8                      9
                      A                      A                      A
 Frequencies --    190.4667               207.2311               239.3616
 Red. masses --      2.4443                 1.3889                 3.7914
 Frc consts  --      0.0522                 0.0351                 0.1280
 IR Inten    --     39.5044                62.4626                 3.7989

                     10                     11                     12
                      A                      A                      A
 Frequencies --    255.3750               278.0595               296.0449
 Red. masses --      1.3205                 2.4795                 2.5659
 Frc consts  --      0.0507                 0.1129                 0.1325
 IR Inten    --     83.5283                30.7436                12.8523

                     13                     14                     15
                      A                      A                      A
 Frequencies --    321.2383               335.5424               349.4065
 Red. masses --      4.0283                 4.6785                 4.5173
 Frc consts  --      0.2449                 0.3104                 0.3249
 IR Inten    --     11.7068                15.0855                 6.6315

                     16                     17                     18
                      A                      A                      A
 Frequencies --    398.0398               414.8210               426.1158
 Red. masses --      1.5033                 1.1786                 1.9273
 Frc consts  --      0.1403                 0.1195                 0.2062
 IR Inten    --     66.8982                93.1849                66.6271

                     19                     20                     21
                      A                      A                      A
 Frequencies --    430.9596               488.8368               523.0995
 Red. masses --      1.4202                 4.6833                 1.2610
 Frc consts  --      0.1554                 0.6594                 0.2033
 IR Inten    --     19.5063                16.3587                99.5431

                     22                     23                     24
                      A                      A                      A
 Frequencies --    547.5402               561.3642               679.5977
 Red. masses --      2.3892                 3.3982                 3.2272
 Frc consts  --      0.4220                 0.6309                 0.8782
 IR Inten    --     72.8812                15.7725                16.8100

                     25                     26                     27
                      A                      A                      A
 Frequencies --    728.4406               860.2507               898.5496
 Red. masses --      3.7115                 2.8180                 3.1690
 Frc consts  --      1.1604                 1.2287                 1.5075
 IR Inten    --     55.2403                27.9297                19.9377

                     28                     29                     30
                      A                      A                      A
 Frequencies --    957.4019              1001.4011              1067.3070
 Red. masses --      2.0093                 1.8204                 3.2093
 Frc consts  --      1.0851                 1.0756                 2.1539
 IR Inten    --      5.0977                 4.6405                44.7026

                     31                     32                     33
                      A                      A                      A
 Frequencies --   1073.5411              1090.1017              1105.8104
 Red. masses --      2.4341                 2.8568                 2.0367
 Frc consts  --      1.6528                 2.0001                 1.4674
 IR Inten    --     18.8392               115.2512                16.2676

                     34                     35                     36
                      A                      A                      A
 Frequencies --   1109.5446              1120.6519              1122.8637
 Red. masses --      4.9992                 3.6716                 3.9130
 Frc consts  --      3.6261                 2.7167                 2.9068
 IR Inten    --     25.2057               243.5683                55.0031

                     37                     38                     39
                      A                      A                      A
 Frequencies --   1148.0898              1154.7475              1227.8844
 Red. masses --      3.4835                 2.3786                 1.1627
 Frc consts  --      2.7053                 1.8687                 1.0329
 IR Inten    --     14.5823                68.4286                43.3195

                     40                     41                     42
                      A                      A                      A
 Frequencies --   1233.4000              1246.6549              1257.6387
 Red. masses --      1.2491                 1.1809                 1.2399
 Frc consts  --      1.1196                 1.0813                 1.1555
 IR Inten    --     44.4689                24.0082                46.1451

                     43                     44                     45
                      A                      A                      A
 Frequencies --   1267.2271              1288.0008              1313.3230
 Red. masses --      1.2137                 1.1110                 1.3498
 Frc consts  --      1.1483                 1.0859                 1.3717
 IR Inten    --     14.9380                29.1524                21.2865

                     46                     47                     48
                      A                      A                      A
 Frequencies --   1343.3588              1354.4703              1371.5174
 Red. masses --      1.2640                 1.2043                 1.2895
 Frc consts  --      1.3439                 1.3017                 1.4292
 IR Inten    --     11.3964                34.9763                11.5826

                     49                     50                     51
                      A                      A                      A
 Frequencies --   1395.1588              1404.6064              1420.6429
 Red. masses --      1.2977                 1.2483                 1.3607
 Frc consts  --      1.4882                 1.4511                 1.6181
 IR Inten    --     12.0863                27.9951                37.1709

                     52                     53                     54
                      A                      A                      A
 Frequencies --   1436.5575              1453.6085              1455.7770
 Red. masses --      1.5199                 1.4499                 1.3845
 Frc consts  --      1.8481                 1.8051                 1.7287
 IR Inten    --     28.7810                20.3223                35.2014

                     55                     56                     57
                      A                      A                      A
 Frequencies --   1470.4875              1473.4595              1518.3620
 Red. masses --      1.5382                 1.5228                 1.0954
 Frc consts  --      1.9597                 1.9480                 1.4878
 IR Inten    --     12.3072                 2.2401                 1.7734

                     58                     59                     60
                      A                      A                      A
 Frequencies --   1524.3438              3001.9968              3018.1755
 Red. masses --      1.0877                 1.0656                 1.0664
 Frc consts  --      1.4891                 5.6581                 5.7235
 IR Inten    --      4.8893                76.6951                35.3567

                     61                     62                     63
                      A                      A                      A
 Frequencies --   3035.2138              3044.7754              3056.4916
 Red. masses --      1.0828                 1.0844                 1.0849
 Frc consts  --      5.8770                 5.9233                 5.9714
 IR Inten    --      5.2448                17.6613                50.6893

                     64                     65                     66
                      A                      A                      A
 Frequencies --   3074.9039              3091.9457              3119.4987
 Red. masses --      1.0979                 1.0948                 1.0880
 Frc consts  --      6.1159                 6.1668                 6.2379
 IR Inten    --     28.9278                25.9882                18.3029

                     67                     68                     69
                      A                      A                      A
 Frequencies --   3847.3499              3861.4858              3896.9335
 Red. masses --      1.0653                 1.0651                 1.0658
 Frc consts  --      9.2910                 9.3573                 9.5360
 IR Inten    --     62.3823                44.9019                70.1443

                     70                     71                     72
                      A                      A                      A
 Frequencies --   3898.4434              3925.7905              3943.5043
 Red. masses --      1.0657                 1.0666                 1.0668
 Frc consts  --      9.5429                 9.6849                 9.7749
 IR Inten    --     59.3055                42.4457                54.2983

 - Thermochemistry -
 -------------------
 Temperature   298.150 Kelvin.  Pressure   1.00000 Atm.
 Atom     1 has atomic number  6 and mass  12.00000

 Molecular mass:   182.07904 amu.
 Principal axes and moments of inertia in atomic units:
                           1         2         3
     Eigenvalues --  1525.454623080.034683296.54996
           X            0.99986  -0.01518  -0.00672
           Y            0.01533   0.99963   0.02257
           Z            0.00637  -0.02267   0.99972
 This molecule is an asymmetric top.
 Rotational symmetry number  1.
 Warning -- assumption of classical behavior for rotation
           may cause significant error
 Rotational temperatures (Kelvin)      0.05678     0.02812     0.02627
 Rotational constants (GHZ):           1.18308     0.58595     0.54746
 Zero-point vibrational energy     581880.9 (Joules/Mol)
                                  139.07287 (Kcal/Mol)
 Warning -- explicit consideration of  23 degrees of freedom as
           vibrations may cause significant error
 Vibrational temperatures:     88.16   100.84   132.14   162.36   195.70
          (Kelvin)            224.49   274.04   298.16   344.39   367.43
                              400.07   425.94   462.19   482.77   502.72
                              572.69   596.83   613.09   620.05   703.33
                              752.62   787.79   807.68   977.79  1048.06
                             1237.71  1292.81  1377.49  1440.79  1535.62
                             1544.59  1568.41  1591.01  1596.39  1612.37
                             1615.55  1651.85  1661.42  1766.65  1774.59
                             1793.66  1809.46  1823.26  1853.15  1889.58
                             1932.79  1948.78  1973.31  2007.32  2020.92
                             2043.99  2066.89  2091.42  2094.54  2115.70
                             2119.98  2184.58  2193.19  4319.20  4342.48
                             4367.00  4380.75  4397.61  4424.10  4448.62
                             4488.26  5535.48  5555.82  5606.82  5608.99
                             5648.34  5673.82

 Zero-point correction=                           0.221627 (Hartree/Particle)
 Thermal correction to Energy=                    0.235740
 Thermal correction to Enthalpy=                  0.236684
 Thermal correction to Gibbs Free Energy=         0.181558
 Sum of electronic and zero-point Energies=           -688.254097
 Sum of electronic and thermal Energies=              -688.239984
 Sum of electronic and thermal Enthalpies=            -688.239040
 Sum of electronic and thermal Free Energies=         -688.294166

                     E (Thermal)             CV                S
                      KCal/Mol        Cal/Mol-Kelvin    Cal/Mol-Kelvin
 Total                  147.929             51.883            116.022
 Electronic               0.000              0.000              0.000
 Translational            0.889              2.981             41.504
 Rotational               0.889              2.981             31.116
 Vibrational            146.152             45.922             43.401
 Vibration     1          0.597              1.973              4.416
 Vibration     2          0.598              1.968              4.151
 Vibration     3          0.602              1.955              3.620
 Vibration     4          0.607              1.939              3.219
 Vibration     5          0.614              1.917              2.859
 Vibration     6          0.620              1.896              2.597
 Vibration     7          0.634              1.853              2.223
 Vibration     8          0.641              1.830              2.068
 Vibration     9          0.657              1.780              1.808
 Vibration    10          0.666              1.754              1.693
 Vibration    11          0.679              1.714              1.546
 Vibration    12          0.690              1.681              1.439
 Vibration    13          0.707              1.633              1.304
 Vibration    14          0.717              1.605              1.233
 Vibration    15          0.727              1.576              1.169
 Vibration    16          0.764              1.474              0.970
 Vibration    17          0.778              1.438              0.910
 Vibration    18          0.788              1.413              0.871
 Vibration    19          0.792              1.403              0.856
 Vibration    20          0.845              1.275              0.687
 Vibration    21          0.878              1.199              0.603
 Vibration    22          0.903              1.145              0.549
 Vibration    23          0.917              1.115              0.521

 Optimization completed.
    -- Stationary point found.
 Normal termination of Gaussian 16 at Wed Oct 11 17:53:58 2023.
