 Gaussian 16, Revision C.01,
 Gaussian 16:  ES64L-G16RevC.01  3-Jul-2019

 ---------------------------------------------
 # opt freq wb97xd/Def2TZVPP geom=connectivity
 ---------------------------------------------

 -------------------
 Title Card Required
 -------------------
 Symbolic Z-matrix:
 Charge =  0 Multiplicity = 1

 SCF Done:  E(RwB97XD) =  -688.471749377     A.U. after   14 cycles
 SCF Done:  E(RwB97XD) =  -688.479704490     A.U. after   11 cycles
 SCF Done:  E(RwB97XD) =  -688.478396483     A.U. after   12 cycles
 SCF Done:  E(RwB97XD) =  -688.480516715     A.U. after   11 cycles
 SCF Done:  E(RwB97XD) =  -688.480703090     A.U. after   12 cycles
 SCF Done:  E(RwB97XD) =  -688.481190206     A.U. after   11 cycles
 SCF Done:  E(RwB97XD) =  -688.481332676     A.U. after   11 cycles
 SCF Done:  E(RwB97XD) =  -688.481363639     A.U. after   10 cycles
 SCF Done:  E(RwB97XD) =  -688.481378914     A.U. after   10 cycles
 SCF Done:  E(RwB97XD) =  -688.481382732     A.U. after    9 cycles
 SCF Done:  E(RwB97XD) =  -688.481384105     A.U. after    8 cycles
 SCF Done:  E(RwB97XD) =  -688.481385155     A.U. after    8 cycles
 SCF Done:  E(RwB97XD) =  -688.481386090     A.U. after    8 cycles
 SCF Done:  E(RwB97XD) =  -688.481386634     A.U. after    8 cycles
 Optimization completed.
    -- Stationary point found.
 Normal termination of Gaussian 16 at Wed Oct 11 14:48:25 2023.

 ----------------------------------------------------------------------
 #N Geom=AllCheck Guess=TCheck SCRF=Check GenChk RwB97XD/def2TZVPP Freq
 ----------------------------------------------------------------------

 Structure from the checkpoint file:  "MannitolConformerOpt_37.chk"
 -------------------
 Title Card Required
 -------------------
 Charge =  0 Multiplicity = 1

                         Standard orientation:
 ---------------------------------------------------------------------
 Center     Atomic      Atomic             Coordinates (Angstroms)
 Number     Number       Type             X           Y           Z
 ---------------------------------------------------------------------
      1          6           0        0.623756    0.529384    0.078105
      2          6           0       -0.749581    0.703761   -0.572273
      3          6           0        1.537798   -0.441471   -0.686971
      4          6           0       -1.625881   -0.551567   -0.656220
      5          1           0       -0.587441    1.054649   -1.594482
      6          1           0        0.494728    0.133787    1.094802
      7          6           0        3.011340   -0.142100   -0.456905
      8          1           0        1.336317   -0.367348   -1.759346
      9          6           0       -1.887493   -1.227330    0.681547
     10          1           0       -1.114609   -1.288201   -1.277443
     11          1           0        3.271254    0.829043   -0.879386
     12          1           0        3.599787   -0.911310   -0.957254
     13          1           0       -0.963082   -1.681333    1.045068
     14          1           0       -2.630961   -2.011330    0.520339
     15          8           0        3.335094   -0.212902    0.919558
     16          1           0        3.024713    0.599538    1.323334
     17          8           0        1.241059   -1.775111   -0.315120
     18          1           0        1.711420   -1.941819    0.505627
     19          8           0        1.252175    1.795022    0.144467
     20          1           0        0.555395    2.431943    0.327760
     21          8           0       -1.443944    1.764538    0.074677
     22          1           0       -1.790656    1.409122    0.902422
     23          8           0       -2.831106   -0.232267   -1.315706
     24          1           0       -3.142135    0.602554   -0.959187
     25          8           0       -2.376314   -0.262545    1.612579
     26          1           0       -2.640068   -0.697237    2.420409
 ---------------------------------------------------------------------

 SCF Done:  E(RwB97XD) =  -688.481386634     A.U. after    1 cycles

 The electronic state is 1-A.
 Alpha  occ. eigenvalues --  -19.27803 -19.26060 -19.25761 -19.25725 -19.25515
 Alpha  occ. eigenvalues --  -19.24687 -10.34338 -10.34189 -10.34125 -10.34088
 Alpha  occ. eigenvalues --  -10.33962 -10.32880  -1.16688  -1.15350  -1.14363
 Alpha  occ. eigenvalues --   -1.13022  -1.12337  -1.11613  -0.89045  -0.85434
 Alpha  occ. eigenvalues --   -0.81065  -0.75846  -0.71343  -0.69440  -0.65245
 Alpha  occ. eigenvalues --   -0.63848  -0.61164  -0.59877  -0.59180  -0.58061
 Alpha  occ. eigenvalues --   -0.56434  -0.55437  -0.54222  -0.52473  -0.51854
 Alpha  occ. eigenvalues --   -0.49768  -0.49135  -0.48668  -0.45852  -0.44305
 Alpha  occ. eigenvalues --   -0.42694  -0.42596  -0.41771  -0.40269  -0.38956
 Alpha  occ. eigenvalues --   -0.38413  -0.37046  -0.35911  -0.35052
 Alpha virt. eigenvalues --    0.08474   0.11121   0.11805   0.12449   0.14473
 Alpha virt. eigenvalues --    0.16159   0.16456   0.16961   0.17372   0.18361
 Alpha virt. eigenvalues --    0.18851   0.19801   0.20575   0.21337   0.22596

 Mulliken charges:
               1
     1  C    0.026007
     2  C    0.110955
     3  C    0.166657
     4  C    0.199348
     5  H    0.095887
     6  H    0.066562
     7  C    0.023252
     8  H    0.064861
     9  C   -0.066327
    10  H    0.071170
    11  H    0.088828
    12  H    0.091381
    13  H    0.089229
    14  H    0.105911
    15  O   -0.374210
    16  H    0.191940
    17  O   -0.373527
    18  H    0.182010
    19  O   -0.375355
    20  H    0.189765
    21  O   -0.423530
    22  H    0.208553
    23  O   -0.358737
    24  H    0.183182
    25  O   -0.338181
    26  H    0.154370
 Sum of Mulliken charges =   0.00000

 Dipole moment (field-independent basis, Debye):
    X=             -0.7004    Y=             -0.3337    Z=              2.4745  Tot=              2.5933
 Quadrupole moment (field-independent basis, Debye-Ang):
   XX=            -78.5421   YY=            -73.4425   ZZ=            -67.1130
   XY=              2.7701   XZ=            -10.2866   YZ=             -2.8208

  Exact polarizability:     105.018       0.587      92.120      -1.641      -0.681      87.724
 Approx polarizability:     101.350      -1.391     105.056      -0.805      -0.003     102.932

                      1                      2                      3
                      A                      A                      A
 Frequencies --     40.3871                63.3082                87.4974
 Red. masses --      5.8366                 5.0167                 5.9913
 Frc consts  --      0.0056                 0.0118                 0.0270
 IR Inten    --      2.5998                 2.9329                 6.2143

                      4                      5                      6
                      A                      A                      A
 Frequencies --    101.5886               146.5723               176.3057
 Red. masses --      5.0722                 5.3701                 3.8609
 Frc consts  --      0.0308                 0.0680                 0.0707
 IR Inten    --      2.7536                 0.7036                 3.6959

                      7                      8                      9
                      A                      A                      A
 Frequencies --    202.1284               217.9895               257.0637
 Red. masses --      3.4254                 1.2243                 4.5005
 Frc consts  --      0.0825                 0.0343                 0.1752
 IR Inten    --      6.3167               104.5664                24.5041

                     10                     11                     12
                      A                      A                      A
 Frequencies --    279.5264               306.3082               326.2564
 Red. masses --      4.6475                 3.5189                 3.3559
 Frc consts  --      0.2139                 0.1945                 0.2105
 IR Inten    --      9.5683                 7.0258                13.4499

                     13                     14                     15
                      A                      A                      A
 Frequencies --    345.4873               374.5433               393.7393
 Red. masses --      4.1914                 3.1810                 1.3950
 Frc consts  --      0.2948                 0.2629                 0.1274
 IR Inten    --     10.9329                 0.8276                53.8866

                     16                     17                     18
                      A                      A                      A
 Frequencies --    427.5855               449.5322               494.9046
 Red. masses --      1.0831                 3.0900                 2.8159
 Frc consts  --      0.1167                 0.3679                 0.4064
 IR Inten    --     49.0834                 5.8121                49.3766

                     19                     20                     21
                      A                      A                      A
 Frequencies --    508.3999               514.3476               538.1780
 Red. masses --      1.3975                 1.1220                 2.6792
 Frc consts  --      0.2128                 0.1749                 0.4572
 IR Inten    --    138.4864                75.6404                26.8855

                     22                     23                     24
                      A                      A                      A
 Frequencies --    562.0244               677.5713               717.0204
 Red. masses --      3.8526                 1.1030                 3.5033
 Frc consts  --      0.7170                 0.2984                 1.0612
 IR Inten    --     27.2714               163.9604                 7.4777

                     25                     26                     27
                      A                      A                      A
 Frequencies --    803.5025               832.4717               886.1215
 Red. masses --      3.7468                 2.9587                 3.3288
 Frc consts  --      1.4252                 1.2081                 1.5400
 IR Inten    --     23.3230                12.2526                27.8292

                     28                     29                     30
                      A                      A                      A
 Frequencies --    940.6987               963.5708              1000.8820
 Red. masses --      1.7792                 2.6861                 2.2195
 Frc consts  --      0.9276                 1.4694                 1.3100
 IR Inten    --     26.3189                 4.5606                15.3882

                     31                     32                     33
                      A                      A                      A
 Frequencies --   1054.2849              1073.1378              1097.1920
 Red. masses --      2.8689                 4.6831                 2.9605
 Frc consts  --      1.8788                 3.1775                 2.0998
 IR Inten    --    104.6355                31.0893                67.0327

                     34                     35                     36
                      A                      A                      A
 Frequencies --   1108.2306              1127.4722              1140.8814
 Red. masses --      2.9531                 2.1162                 3.1792
 Frc consts  --      2.1369                 1.5850                 2.4381
 IR Inten    --     83.4696               108.8307                45.4081

                     37                     38                     39
                      A                      A                      A
 Frequencies --   1151.9078              1169.1426              1207.5644
 Red. masses --      2.8965                 2.9908                 1.1748
 Frc consts  --      2.2645                 2.4086                 1.0093
 IR Inten    --     73.7797                16.6129                 6.8424

                     40                     41                     42
                      A                      A                      A
 Frequencies --   1220.1215              1256.7574              1261.1052
 Red. masses --      1.1119                 1.2267                 1.1722
 Frc consts  --      0.9752                 1.1415                 1.0984
 IR Inten    --     88.1133                43.1491                 7.9057

                     43                     44                     45
                      A                      A                      A
 Frequencies --   1285.2993              1303.3391              1328.7398
 Red. masses --      1.3546                 1.3104                 1.4536
 Frc consts  --      1.3185                 1.3115                 1.5120
 IR Inten    --      6.2431                 8.7327                 0.2452

                     46                     47                     48
                      A                      A                      A
 Frequencies --   1334.0134              1357.9080              1396.7611
 Red. masses --      1.2681                 1.3655                 1.3611
 Frc consts  --      1.3296                 1.4835                 1.5645
 IR Inten    --    117.9929                 3.3567                11.4557

                     49                     50                     51
                      A                      A                      A
 Frequencies --   1402.3477              1408.6583              1411.4242
 Red. masses --      1.2671                 1.2211                 1.2291
 Frc consts  --      1.4682                 1.4276                 1.4426
 IR Inten    --      4.1970                24.8915                48.5427

                     52                     53                     54
                      A                      A                      A
 Frequencies --   1430.8281              1437.8377              1454.3236
 Red. masses --      1.3195                 1.3138                 1.4930
 Frc consts  --      1.5916                 1.6003                 1.8605
 IR Inten    --     37.6516                14.9103                17.5141

                     55                     56                     57
                      A                      A                      A
 Frequencies --   1457.3429              1476.1632              1503.2723
 Red. masses --      1.6427                 1.2316                 1.0807
 Frc consts  --      2.0556                 1.5812                 1.4389
 IR Inten    --      7.5963                57.8728                10.0301

                     58                     59                     60
                      A                      A                      A
 Frequencies --   1522.5789              2999.0788              3053.1028
 Red. masses --      1.0803                 1.0825                 1.0574
 Frc consts  --      1.4756                 5.7368                 5.8071
 IR Inten    --     14.1609                28.5349                30.1131

                     61                     62                     63
                      A                      A                      A
 Frequencies --   3062.9870              3074.9256              3081.2697
 Red. masses --      1.0811                 1.0841                 1.0649
 Frc consts  --      5.9758                 6.0395                 5.9568
 IR Inten    --      8.2981                16.8677                61.9271

                     64                     65                     66
                      A                      A                      A
 Frequencies --   3104.5157              3107.3284              3131.3725
 Red. masses --      1.1066                 1.0878                 1.1089
 Frc consts  --      6.2839                 6.1883                 6.4065
 IR Inten    --     20.3819                17.0315                17.2956

                     67                     68                     69
                      A                      A                      A
 Frequencies --   3765.9323              3835.4997              3853.9086
 Red. masses --      1.0656                 1.0653                 1.0657
 Frc consts  --      8.9042                 9.2332                 9.3261
 IR Inten    --    184.8442                74.6806                46.8086

                     70                     71                     72
                      A                      A                      A
 Frequencies --   3874.0836              3885.4672              3948.7212
 Red. masses --      1.0655                 1.0658                 1.0669
 Frc consts  --      9.4218                 9.4800                 9.8013
 IR Inten    --     49.7374                41.9691                58.5462

 - Thermochemistry -
 -------------------
 Temperature   298.150 Kelvin.  Pressure   1.00000 Atm.
 Atom     1 has atomic number  6 and mass  12.00000

 Molecular mass:   182.07904 amu.
 Principal axes and moments of inertia in atomic units:
                           1         2         3
     Eigenvalues --  1219.176003213.052903511.19581
           X            0.99990   0.00667  -0.01264
           Y           -0.00702   0.99959  -0.02785
           Z            0.01245   0.02793   0.99953
 This molecule is an asymmetric top.
 Rotational symmetry number  1.
 Warning -- assumption of classical behavior for rotation
           may cause significant error
 Rotational temperatures (Kelvin)      0.07104     0.02696     0.02467
 Rotational constants (GHZ):           1.48030     0.56169     0.51400
 Zero-point vibrational energy     584928.1 (Joules/Mol)
                                  139.80117 (Kcal/Mol)
 Warning -- explicit consideration of  22 degrees of freedom as
           vibrations may cause significant error
 Vibrational temperatures:     58.11    91.09   125.89   146.16   210.88
          (Kelvin)            253.66   290.82   313.64   369.86   402.18
                              440.71   469.41   497.08   538.88   566.50
                              615.20   646.78   712.06   731.47   740.03
                              774.32   808.63   974.87  1031.63  1156.06
                             1197.74  1274.93  1353.46  1386.36  1440.05
                             1516.88  1544.01  1578.61  1594.50  1622.18
                             1641.47  1657.34  1682.14  1737.42  1755.48
                             1808.19  1814.45  1849.26  1875.21  1911.76
                             1919.35  1953.73  2009.63  2017.67  2026.75
                             2030.72  2058.64  2068.73  2092.45  2096.79
                             2123.87  2162.87  2190.65  4315.01  4392.73
                             4406.96  4424.13  4433.26  4466.71  4470.75
                             4505.35  5418.34  5518.43  5544.91  5573.94
                             5590.32  5681.33

 Zero-point correction=                           0.222787 (Hartree/Particle)
 Thermal correction to Energy=                    0.236364
 Thermal correction to Enthalpy=                  0.237308
 Thermal correction to Gibbs Free Energy=         0.182865
 Sum of electronic and zero-point Energies=           -688.258599
 Sum of electronic and thermal Energies=              -688.245023
 Sum of electronic and thermal Enthalpies=            -688.244079
 Sum of electronic and thermal Free Energies=         -688.298522

                     E (Thermal)             CV                S
                      KCal/Mol        Cal/Mol-Kelvin    Cal/Mol-Kelvin
 Total                  148.321             50.601            114.585
 Electronic               0.000              0.000              0.000
 Translational            0.889              2.981             41.504
 Rotational               0.889              2.981             30.998
 Vibrational            146.543             44.639             42.083
 Vibration     1          0.594              1.981              5.240
 Vibration     2          0.597              1.972              4.351
 Vibration     3          0.601              1.958              3.715
 Vibration     4          0.604              1.948              3.424
 Vibration     5          0.617              1.906              2.716
 Vibration     6          0.628              1.872              2.367
 Vibration     7          0.639              1.837              2.114
 Vibration     8          0.646              1.814              1.976
 Vibration     9          0.667              1.751              1.682
 Vibration    10          0.680              1.711              1.537
 Vibration    11          0.697              1.662              1.382
 Vibration    12          0.710              1.623              1.279
 Vibration    13          0.724              1.584              1.187
 Vibration    14          0.746              1.524              1.061
 Vibration    15          0.761              1.484              0.986
 Vibration    16          0.789              1.410              0.867
 Vibration    17          0.808              1.362              0.797
 Vibration    18          0.851              1.261              0.671
 Vibration    19          0.864              1.231              0.637
 Vibration    20          0.869              1.218              0.623
 Vibration    21          0.893              1.166              0.569
 Vibration    22          0.918              1.113              0.520

                           ! Non-Optimized Parameters !
 Normal termination of Gaussian 16 at Wed Oct 11 15:26:26 2023.
