 Gaussian 16, Revision C.01,
 Gaussian 16:  ES64L-G16RevC.01  3-Jul-2019

 ---------------------------------------------
 # opt freq wb97xd/def2tzvpp geom=connectivity
 ---------------------------------------------

 --------------------------------
 Mannitol Conformer Optimziations
 --------------------------------
 Symbolic Z-matrix:
 Charge =  0 Multiplicity = 1

 SCF Done:  E(RwB97XD) =  -688.469836628     A.U. after   13 cycles
 SCF Done:  E(RwB97XD) =  -688.478539651     A.U. after   12 cycles
 SCF Done:  E(RwB97XD) =  -688.478816092     A.U. after   11 cycles
 SCF Done:  E(RwB97XD) =  -688.478652319     A.U. after   12 cycles
 SCF Done:  E(RwB97XD) =  -688.478935737     A.U. after   11 cycles
 SCF Done:  E(RwB97XD) =  -688.479561766     A.U. after   11 cycles
 SCF Done:  E(RwB97XD) =  -688.479723265     A.U. after   11 cycles
 SCF Done:  E(RwB97XD) =  -688.479792952     A.U. after   10 cycles
 SCF Done:  E(RwB97XD) =  -688.479814926     A.U. after   10 cycles
 SCF Done:  E(RwB97XD) =  -688.479827621     A.U. after   10 cycles
 SCF Done:  E(RwB97XD) =  -688.479834931     A.U. after   10 cycles
 SCF Done:  E(RwB97XD) =  -688.479837729     A.U. after    8 cycles
 SCF Done:  E(RwB97XD) =  -688.479838910     A.U. after    8 cycles
 SCF Done:  E(RwB97XD) =  -688.479839172     A.U. after    7 cycles
 SCF Done:  E(RwB97XD) =  -688.479839248     A.U. after    6 cycles
 Optimization completed.
    -- Stationary point found.
 Normal termination of Gaussian 16 at Wed Sep 27 11:43:10 2023.

 ----------------------------------------------------------------------
 #N Geom=AllCheck Guess=TCheck SCRF=Check GenChk RwB97XD/def2TZVPP Freq
 ----------------------------------------------------------------------

 Structure from the checkpoint file:  "MannitolConformerOpt_16.chk"
 --------------------------------
 Mannitol Conformer Optimziations
 --------------------------------
 Charge =  0 Multiplicity = 1

                         Standard orientation:
 ---------------------------------------------------------------------
 Center     Atomic      Atomic             Coordinates (Angstroms)
 Number     Number       Type             X           Y           Z
 ---------------------------------------------------------------------
      1          6           0        0.178256   -0.443368    0.212640
      2          6           0       -0.678299    0.462817   -0.666444
      3          6           0        1.617054   -0.654849   -0.251630
      4          6           0       -2.126827    0.579740   -0.161017
      5          1           0       -0.698751    0.018846   -1.662847
      6          1           0       -0.278705   -1.439439    0.186047
      7          6           0        2.470489    0.598545   -0.366087
      8          1           0        1.593182   -1.155959   -1.226827
      9          6           0       -2.817572   -0.751012    0.093633
     10          1           0       -2.683203    1.120526   -0.928378
     11          1           0        2.364097    1.202971    0.538589
     12          1           0        2.156207    1.192672   -1.222585
     13          1           0       -3.861215   -0.547249    0.350270
     14          1           0       -2.351145   -1.245935    0.954363
     15          8           0        3.810689    0.138641   -0.515378
     16          1           0        4.406421    0.882090   -0.455946
     17          8           0        2.181603   -1.522962    0.719431
     18          1           0        3.135220   -1.447742    0.629868
     19          8           0        0.158444    0.047120    1.546031
     20          1           0        0.813863   -0.461144    2.031046
     21          8           0       -0.151215    1.764602   -0.797441
     22          1           0       -0.489817    2.272457   -0.055058
     23          8           0       -2.184220    1.387866    0.998785
     24          1           0       -1.579606    1.000961    1.642426
     25          8           0       -2.712585   -1.539810   -1.075541
     26          1           0       -3.206886   -2.347948   -0.954636
 ---------------------------------------------------------------------

 SCF Done:  E(RwB97XD) =  -688.479839248     A.U. after    1 cycles

 The electronic state is 1-A.
 Alpha  occ. eigenvalues --  -19.26280 -19.26147 -19.25975 -19.25361 -19.24854
 Alpha  occ. eigenvalues --  -19.24456 -10.33869 -10.33822 -10.33521 -10.33476
 Alpha  occ. eigenvalues --  -10.33309 -10.32853  -1.16240  -1.14895  -1.13770
 Alpha  occ. eigenvalues --   -1.13142  -1.11534  -1.11343  -0.88642  -0.85310
 Alpha  occ. eigenvalues --   -0.80454  -0.75379  -0.71413  -0.67846  -0.63875
 Alpha  occ. eigenvalues --   -0.62809  -0.60948  -0.60613  -0.59899  -0.57146
 Alpha  occ. eigenvalues --   -0.55966  -0.55121  -0.53638  -0.52767  -0.51292
 Alpha  occ. eigenvalues --   -0.49452  -0.47579  -0.47196  -0.45829  -0.45116
 Alpha  occ. eigenvalues --   -0.43838  -0.41997  -0.40792  -0.38329  -0.37526
 Alpha  occ. eigenvalues --   -0.37220  -0.36873  -0.36513  -0.35158
 Alpha virt. eigenvalues --    0.09685   0.09949   0.11472   0.13821   0.14284
 Alpha virt. eigenvalues --    0.15459   0.16330   0.17540   0.18212   0.19081
 Alpha virt. eigenvalues --    0.20569   0.21323   0.21783   0.22345   0.23592

 Mulliken charges:
               1
     1  C    0.084480
     2  C    0.160465
     3  C    0.111925
     4  C    0.169207
     5  H    0.085547
     6  H    0.099763
     7  C   -0.016132
     8  H    0.065427
     9  C   -0.080083
    10  H    0.083770
    11  H    0.082729
    12  H    0.094653
    13  H    0.103993
    14  H    0.080677
    15  O   -0.349123
    16  H    0.171743
    17  O   -0.390402
    18  H    0.198229
    19  O   -0.388588
    20  H    0.178829
    21  O   -0.378708
    22  H    0.188131
    23  O   -0.395972
    24  H    0.200767
    25  O   -0.325601
    26  H    0.164274
 Sum of Mulliken charges =  -0.00000

 Dipole moment (field-independent basis, Debye):
    X=              0.7483    Y=             -1.0200    Z=              0.7584  Tot=              1.4749
 Quadrupole moment (field-independent basis, Debye-Ang):
   XX=            -61.6541   YY=            -71.4112   ZZ=            -73.7280
   XY=             12.9334   XZ=              1.7405   YZ=              0.0631

  Exact polarizability:     109.440       1.798      90.795      -0.475       0.341      85.685
 Approx polarizability:     103.473       0.219     102.576       0.248       1.397     102.477

                      1                      2                      3
                      A                      A                      A
 Frequencies --     42.4086                75.7901               103.5432
 Red. masses --      5.3296                 5.5433                 5.7624
 Frc consts  --      0.0056                 0.0188                 0.0364
 IR Inten    --      2.7839                 1.0752                 3.5051

                      4                      5                      6
                      A                      A                      A
 Frequencies --    127.6035               157.7570               164.1672
 Red. masses --      3.4493                 4.5828                 4.8849
 Frc consts  --      0.0331                 0.0672                 0.0776
 IR Inten    --      2.9863                 3.9413                16.0394

                      7                      8                      9
                      A                      A                      A
 Frequencies --    219.1342               231.3221               242.6716
 Red. masses --      2.5918                 3.5858                 1.1636
 Frc consts  --      0.0733                 0.1130                 0.0404
 IR Inten    --      8.8512                15.7703                99.9666

                     10                     11                     12
                      A                      A                      A
 Frequencies --    252.3035               279.5340               292.1950
 Red. masses --      1.2309                 5.0430                 4.0677
 Frc consts  --      0.0462                 0.2322                 0.2046
 IR Inten    --     99.3402                 6.0355                 2.5714

                     13                     14                     15
                      A                      A                      A
 Frequencies --    293.9417               331.6514               361.5138
 Red. masses --      5.0006                 4.1621                 5.3583
 Frc consts  --      0.2546                 0.2697                 0.4126
 IR Inten    --      6.5794                 5.1449                 6.0095

                     16                     17                     18
                      A                      A                      A
 Frequencies --    432.4326               472.3364               484.1249
 Red. masses --      1.2364                 4.5944                 1.1072
 Frc consts  --      0.1362                 0.6039                 0.1529
 IR Inten    --     65.9108                 7.9191                67.0490

                     19                     20                     21
                      A                      A                      A
 Frequencies --    503.1952               529.5373               548.5306
 Red. masses --      2.0110                 1.5095                 2.9188
 Frc consts  --      0.3000                 0.2494                 0.5174
 IR Inten    --     34.2420                66.5592                51.1032

                     22                     23                     24
                      A                      A                      A
 Frequencies --    570.1152               636.0879               736.9929
 Red. masses --      3.0927                 1.1342                 3.5792
 Frc consts  --      0.5923                 0.2704                 1.1454
 IR Inten    --     12.3287               211.2551                21.6395

                     25                     26                     27
                      A                      A                      A
 Frequencies --    793.3347               834.3365               864.9828
 Red. masses --      3.8574                 4.1373                 2.7811
 Frc consts  --      1.4304                 1.6969                 1.2260
 IR Inten    --     16.2719                23.6712                 9.1953

                     28                     29                     30
                      A                      A                      A
 Frequencies --    927.0708              1005.8984              1043.9582
 Red. masses --      2.2446                 2.0005                 1.7867
 Frc consts  --      1.1366                 1.1926                 1.1473
 IR Inten    --     17.4695                21.9703                16.7610

                     31                     32                     33
                      A                      A                      A
 Frequencies --   1072.5761              1085.6642              1096.9427
 Red. masses --      3.5681                 2.9362                 3.7145
 Frc consts  --      2.4185                 2.0390                 2.6334
 IR Inten    --     42.6373                38.6148               105.1917

                     34                     35                     36
                      A                      A                      A
 Frequencies --   1107.0049              1117.1624              1134.2926
 Red. masses --      4.4626                 2.5212                 2.7876
 Frc consts  --      3.2221                 1.8539                 2.1132
 IR Inten    --     56.5050                92.1037                54.1339

                     37                     38                     39
                      A                      A                      A
 Frequencies --   1148.4754              1165.5770              1224.3035
 Red. masses --      3.0864                 2.2724                 1.1678
 Frc consts  --      2.3986                 1.8189                 1.0313
 IR Inten    --     60.7598                58.7869                69.0960

                     40                     41                     42
                      A                      A                      A
 Frequencies --   1244.0253              1249.6141              1263.1550
 Red. masses --      1.1232                 1.1674                 1.1627
 Frc consts  --      1.0242                 1.0741                 1.0930
 IR Inten    --     17.8502                 8.6919                44.8927

                     43                     44                     45
                      A                      A                      A
 Frequencies --   1266.3883              1283.5808              1304.7770
 Red. masses --      1.2314                 1.1706                 1.2141
 Frc consts  --      1.1636                 1.1363                 1.2178
 IR Inten    --     31.9953                41.2508                32.5290

                     46                     47                     48
                      A                      A                      A
 Frequencies --   1328.7550              1365.4995              1377.7428
 Red. masses --      1.3770                 1.2251                 1.2672
 Frc consts  --      1.4324                 1.3458                 1.4172
 IR Inten    --     11.6113                 0.2989                21.5920

                     49                     50                     51
                      A                      A                      A
 Frequencies --   1392.6906              1412.6007              1423.9087
 Red. masses --      1.3238                 1.3834                 1.3238
 Frc consts  --      1.5128                 1.6264                 1.5814
 IR Inten    --     12.8711                 4.0766                17.3085

                     52                     53                     54
                      A                      A                      A
 Frequencies --   1433.9710              1457.8817              1465.0693
 Red. masses --      1.2434                 1.8521                 1.4477
 Frc consts  --      1.5064                 2.3193                 1.8308
 IR Inten    --     46.1786                10.5140                24.7279

                     55                     56                     57
                      A                      A                      A
 Frequencies --   1471.7174              1478.0207              1519.8145
 Red. masses --      1.3555                 1.5708                 1.0934
 Frc consts  --      1.7297                 2.0218                 1.4880
 IR Inten    --     57.5574                21.8261                 7.0772

                     58                     59                     60
                      A                      A                      A
 Frequencies --   1539.5949              3012.7025              3021.4130
 Red. masses --      1.0805                 1.0622                 1.0825
 Frc consts  --      1.5090                 5.6801                 5.8222
 IR Inten    --     10.0834                32.1700                23.1361

                     61                     62                     63
                      A                      A                      A
 Frequencies --   3035.7268              3057.7834              3061.9227
 Red. masses --      1.0836                 1.0638                 1.0989
 Frc consts  --      5.8836                 5.8604                 6.0702
 IR Inten    --     34.1351                28.4193                30.3981

                     64                     65                     66
                      A                      A                      A
 Frequencies --   3090.2229              3102.1192              3135.1729
 Red. masses --      1.0892                 1.0864                 1.1015
 Frc consts  --      6.1280                 6.1598                 6.3793
 IR Inten    --     34.9899                21.5845                18.3563

                     67                     68                     69
                      A                      A                      A
 Frequencies --   3794.0630              3841.8605              3851.5938
 Red. masses --      1.0656                 1.0653                 1.0652
 Frc consts  --      9.0374                 9.2641                 9.3104
 IR Inten    --    139.8674                78.2404               130.3748

                     70                     71                     72
                      A                      A                      A
 Frequencies --   3855.9709              3941.0567              3949.0035
 Red. masses --      1.0652                 1.0667                 1.0668
 Frc consts  --      9.3314                 9.7619                 9.8023
 IR Inten    --     26.8684                48.8557                56.8225

 - Thermochemistry -
 -------------------
 Temperature   298.150 Kelvin.  Pressure   1.00000 Atm.
 Atom     1 has atomic number  6 and mass  12.00000

 Molecular mass:   182.07904 amu.
 Principal axes and moments of inertia in atomic units:
                           1         2         3
     Eigenvalues --  1163.601213458.329633761.35292
           X            0.99988   0.01512  -0.00173
           Y           -0.01513   0.99986  -0.00719
           Z            0.00162   0.00721   0.99997
 This molecule is an asymmetric top.
 Rotational symmetry number  1.
 Warning -- assumption of classical behavior for rotation
           may cause significant error
 Rotational temperatures (Kelvin)      0.07444     0.02505     0.02303
 Rotational constants (GHZ):           1.55100     0.52185     0.47981
 Zero-point vibrational energy     584614.4 (Joules/Mol)
                                  139.72619 (Kcal/Mol)
 Warning -- explicit consideration of  22 degrees of freedom as
           vibrations may cause significant error
 Vibrational temperatures:     61.02   109.05   148.98   183.59   226.98
          (Kelvin)            236.20   315.29   332.82   349.15   363.01
                              402.19   420.40   422.92   477.17   520.14
                              622.17   679.59   696.55   723.99   761.89
                              789.21   820.27   915.19  1060.37  1141.43
                             1200.42  1244.52  1333.85  1447.26  1502.02
                             1543.20  1562.03  1578.26  1592.73  1607.35
                             1631.99  1652.40  1677.01  1761.50  1789.87
                             1797.92  1817.40  1822.05  1846.79  1877.28
                             1911.78  1964.65  1982.26  2003.77  2032.42
                             2048.69  2063.16  2097.57  2107.91  2117.47
                             2126.54  2186.67  2215.13  4334.61  4347.14
                             4367.73  4399.47  4405.42  4446.14  4463.26
                             4510.81  5458.81  5527.58  5541.58  5547.88
                             5670.30  5681.74

 Zero-point correction=                           0.222668 (Hartree/Particle)
 Thermal correction to Energy=                    0.236339
 Thermal correction to Enthalpy=                  0.237283
 Thermal correction to Gibbs Free Energy=         0.182970
 Sum of electronic and zero-point Energies=           -688.257171
 Sum of electronic and thermal Energies=              -688.243500
 Sum of electronic and thermal Enthalpies=            -688.242556
 Sum of electronic and thermal Free Energies=         -688.296869

                     E (Thermal)             CV                S
                      KCal/Mol        Cal/Mol-Kelvin    Cal/Mol-Kelvin
 Total                  148.305             50.857            114.312
 Electronic               0.000              0.000              0.000
 Translational            0.889              2.981             41.504
 Rotational               0.889              2.981             31.093
 Vibrational            146.527             44.895             41.714
 Vibration     1          0.595              1.980              5.143
 Vibration     2          0.599              1.965              3.997
 Vibration     3          0.605              1.946              3.386
 Vibration     4          0.611              1.926              2.982
 Vibration     5          0.621              1.894              2.577
 Vibration     6          0.623              1.886              2.501
 Vibration     7          0.647              1.812              1.966
 Vibration     8          0.653              1.793              1.869
 Vibration     9          0.659              1.775              1.783
 Vibration    10          0.664              1.759              1.714
 Vibration    11          0.680              1.711              1.537
 Vibration    12          0.688              1.688              1.461
 Vibration    13          0.689              1.685              1.451
 Vibration    14          0.714              1.612              1.252
 Vibration    15          0.736              1.552              1.116
 Vibration    16          0.793              1.400              0.851
 Vibration    17          0.829              1.311              0.731
 Vibration    18          0.840              1.285              0.699
 Vibration    19          0.859              1.243              0.650
 Vibration    20          0.884              1.185              0.588
 Vibration    21          0.904              1.143              0.547
 Vibration    22          0.926              1.096              0.504

 Optimization completed.
    -- Stationary point found.
 Normal termination of Gaussian 16 at Wed Sep 27 12:23:00 2023.
