 Gaussian 16, Revision C.01,
 Gaussian 16:  ES64L-G16RevC.01  3-Jul-2019

 ---------------------------------------------
 # opt freq wb97xd/Def2TZVPP geom=connectivity
 ---------------------------------------------

 -------------------
 Title Card Required
 -------------------
 Symbolic Z-matrix:
 Charge =  0 Multiplicity = 1

 SCF Done:  E(RwB97XD) =  -688.468195337     A.U. after   14 cycles
 SCF Done:  E(RwB97XD) =  -688.476456661     A.U. after   12 cycles
 SCF Done:  E(RwB97XD) =  -688.476070910     A.U. after   12 cycles
 SCF Done:  E(RwB97XD) =  -688.477065692     A.U. after   12 cycles
 SCF Done:  E(RwB97XD) =  -688.477953397     A.U. after   11 cycles
 SCF Done:  E(RwB97XD) =  -688.478118549     A.U. after   11 cycles
 SCF Done:  E(RwB97XD) =  -688.478064367     A.U. after   11 cycles
 SCF Done:  E(RwB97XD) =  -688.478179321     A.U. after   10 cycles
 SCF Done:  E(RwB97XD) =  -688.478194421     A.U. after    9 cycles
 SCF Done:  E(RwB97XD) =  -688.478203483     A.U. after   10 cycles
 SCF Done:  E(RwB97XD) =  -688.478206186     A.U. after    8 cycles
 SCF Done:  E(RwB97XD) =  -688.478209364     A.U. after    9 cycles
 SCF Done:  E(RwB97XD) =  -688.478210572     A.U. after    8 cycles
 SCF Done:  E(RwB97XD) =  -688.478210831     A.U. after    7 cycles
 Optimization completed.
    -- Stationary point found.
 Normal termination of Gaussian 16 at Wed Oct 11 14:47:36 2023.

 ----------------------------------------------------------------------
 #N Geom=AllCheck Guess=TCheck SCRF=Check GenChk RwB97XD/def2TZVPP Freq
 ----------------------------------------------------------------------

 Structure from the checkpoint file:  "MannitolConformerOpt_40.chk"
 -------------------
 Title Card Required
 -------------------
 Charge =  0 Multiplicity = 1

                         Standard orientation:
 ---------------------------------------------------------------------
 Center     Atomic      Atomic             Coordinates (Angstroms)
 Number     Number       Type             X           Y           Z
 ---------------------------------------------------------------------
      1          6           0        0.590010   -0.823996    0.156689
      2          6           0       -0.491601    0.078280    0.747724
      3          6           0        1.677111   -0.155982   -0.684483
      4          6           0       -1.331311    0.860949   -0.268508
      5          1           0       -0.024875    0.803765    1.412126
      6          1           0        0.105830   -1.569949   -0.487723
      7          6           0        2.440494    0.957064    0.025372
      8          1           0        1.223765    0.271163   -1.581937
      9          6           0       -1.919141    0.004812   -1.380517
     10          1           0       -0.681736    1.602020   -0.736056
     11          1           0        3.355827    1.137097   -0.544522
     12          1           0        2.713228    0.629422    1.033691
     13          1           0       -1.120133   -0.349015   -2.041187
     14          1           0       -2.602631    0.628614   -1.961355
     15          8           0        1.624787    2.115337    0.059638
     16          1           0        2.053753    2.788311    0.583926
     17          8           0        2.580831   -1.148836   -1.120907
     18          1           0        2.748939   -1.723481   -0.370277
     19          8           0        1.260361   -1.495719    1.209144
     20          1           0        0.589291   -1.752584    1.845825
     21          8           0       -1.328928   -0.717707    1.584618
     22          1           0       -1.875624   -1.255983    1.000169
     23          8           0       -2.339320    1.576437    0.408714
     24          1           0       -2.673703    1.006265    1.104811
     25          8           0       -2.613420   -1.100018   -0.809218
     26          1           0       -3.079781   -1.578358   -1.491070
 ---------------------------------------------------------------------

 SCF Done:  E(RwB97XD) =  -688.478210831     A.U. after    1 cycles

 The electronic state is 1-A.
 Alpha  occ. eigenvalues --  -19.27636 -19.25812 -19.25739 -19.25464 -19.24636
 Alpha  occ. eigenvalues --  -19.24261 -10.34128 -10.33830 -10.33805 -10.33707
 Alpha  occ. eigenvalues --  -10.33632 -10.32797  -1.16386  -1.15118  -1.13768
 Alpha  occ. eigenvalues --   -1.13193  -1.11984  -1.10998  -0.89029  -0.84996
 Alpha  occ. eigenvalues --   -0.80550  -0.75908  -0.70836  -0.68706  -0.65077
 Alpha  occ. eigenvalues --   -0.63431  -0.62211  -0.60796  -0.58671  -0.56585
 Alpha  occ. eigenvalues --   -0.55802  -0.54528  -0.53885  -0.52739  -0.51120
 Alpha  occ. eigenvalues --   -0.49328  -0.48952  -0.48521  -0.45967  -0.44340
 Alpha  occ. eigenvalues --   -0.43423  -0.42315  -0.40522  -0.39232  -0.38616
 Alpha  occ. eigenvalues --   -0.36898  -0.36805  -0.35903  -0.35181
 Alpha virt. eigenvalues --    0.08775   0.10255   0.11992   0.12607   0.14395
 Alpha virt. eigenvalues --    0.15758   0.16467   0.17914   0.18326   0.18609
 Alpha virt. eigenvalues --    0.20302   0.20506   0.20905   0.21614   0.22347

 Mulliken charges:
               1
     1  C   -0.035139
     2  C    0.194583
     3  C    0.226536
     4  C    0.155818
     5  H    0.094938
     6  H    0.096785
     7  C   -0.068997
     8  H    0.052794
     9  C   -0.058319
    10  H    0.071859
    11  H    0.101221
    12  H    0.089947
    13  H    0.084201
    14  H    0.108916
    15  O   -0.330064
    16  H    0.165299
    17  O   -0.363387
    18  H    0.186895
    19  O   -0.380719
    20  H    0.187945
    21  O   -0.421844
    22  H    0.204649
    23  O   -0.365504
    24  H    0.184174
    25  O   -0.334800
    26  H    0.152213
 Sum of Mulliken charges =  -0.00000

 Dipole moment (field-independent basis, Debye):
    X=             -0.6293    Y=             -0.7014    Z=             -0.7202  Tot=              1.1860
 Quadrupole moment (field-independent basis, Debye-Ang):
   XX=            -70.0774   YY=            -70.6010   ZZ=            -70.6063
   XY=             12.4309   XZ=             10.1898   YZ=              2.1017

  Exact polarizability:     103.734       0.033      92.014       0.956      -0.200      88.797
 Approx polarizability:     103.520      -0.224     102.614      -0.354      -1.257     102.802

                      1                      2                      3
                      A                      A                      A
 Frequencies --     62.2368                75.9544                97.9667
 Red. masses --      5.4542                 5.0902                 4.8114
 Frc consts  --      0.0124                 0.0173                 0.0272
 IR Inten    --      6.0540                 1.4940                 3.3629

                      4                      5                      6
                      A                      A                      A
 Frequencies --    130.6779               138.3509               181.7957
 Red. masses --      6.9027                 4.0665                 4.4477
 Frc consts  --      0.0694                 0.0459                 0.0866
 IR Inten    --      0.1009                13.0020                 7.5167

                      7                      8                      9
                      A                      A                      A
 Frequencies --    205.3187               219.6408               234.6916
 Red. masses --      1.7490                 1.1274                 1.7431
 Frc consts  --      0.0434                 0.0320                 0.0566
 IR Inten    --     45.9971                74.3404                74.6084

                     10                     11                     12
                      A                      A                      A
 Frequencies --    253.3507               279.1284               289.0896
 Red. masses --      3.4732                 4.2602                 3.7863
 Frc consts  --      0.1313                 0.1956                 0.1864
 IR Inten    --     21.8059                 3.9209                33.8080

                     13                     14                     15
                      A                      A                      A
 Frequencies --    318.3352               330.3320               358.2892
 Red. masses --      4.0325                 3.3453                 2.9625
 Frc consts  --      0.2408                 0.2151                 0.2241
 IR Inten    --      2.8036                 5.2108                 2.0910

                     16                     17                     18
                      A                      A                      A
 Frequencies --    393.0074               434.0022               445.9672
 Red. masses --      1.3396                 1.6713                 2.2668
 Frc consts  --      0.1219                 0.1855                 0.2656
 IR Inten    --     28.1215               118.0372                92.2620

                     19                     20                     21
                      A                      A                      A
 Frequencies --    465.8344               489.0932               506.9022
 Red. masses --      1.1648                 4.0085                 3.6162
 Frc consts  --      0.1489                 0.5650                 0.5475
 IR Inten    --     30.0772                 3.4327                 6.1235

                     22                     23                     24
                      A                      A                      A
 Frequencies --    584.3239               667.0934               685.7868
 Red. masses --      3.3707                 1.2195                 2.4067
 Frc consts  --      0.6781                 0.3197                 0.6669
 IR Inten    --      4.8004               166.0515                10.4172

                     25                     26                     27
                      A                      A                      A
 Frequencies --    803.9068               832.6202               883.1900
 Red. masses --      3.9524                 2.8720                 2.8307
 Frc consts  --      1.5050                 1.1731                 1.3009
 IR Inten    --     28.3193                17.2479                15.5554

                     28                     29                     30
                      A                      A                      A
 Frequencies --    960.4934              1000.1045              1006.5393
 Red. masses --      2.7271                 2.0932                 1.9966
 Frc consts  --      1.4823                 1.2335                 1.1918
 IR Inten    --      8.2747                24.3051                38.0428

                     31                     32                     33
                      A                      A                      A
 Frequencies --   1070.6154              1074.8913              1098.6088
 Red. masses --      2.2357                 4.0260                 6.8459
 Frc consts  --      1.5099                 2.7406                 4.8682
 IR Inten    --     47.9303                57.7274               153.5182

                     34                     35                     36
                      A                      A                      A
 Frequencies --   1115.1613              1117.3449              1141.0539
 Red. masses --      3.0653                 2.9152                 2.7924
 Frc consts  --      2.2459                 2.1443                 2.1421
 IR Inten    --     45.3955               132.8413                15.8431

                     37                     38                     39
                      A                      A                      A
 Frequencies --   1162.6743              1170.9736              1217.6538
 Red. masses --      2.8611                 2.6266                 1.1364
 Frc consts  --      2.2787                 2.1220                 0.9927
 IR Inten    --     44.5666                42.1128                64.1213

                     40                     41                     42
                      A                      A                      A
 Frequencies --   1225.3395              1248.6742              1263.5131
 Red. masses --      1.1143                 1.2475                 1.1564
 Frc consts  --      0.9858                 1.1460                 1.0877
 IR Inten    --     38.8168                 7.9557                32.4810

                     43                     44                     45
                      A                      A                      A
 Frequencies --   1274.2927              1287.4558              1308.9083
 Red. masses --      1.1748                 1.1627                 1.2415
 Frc consts  --      1.1240                 1.1355                 1.2532
 IR Inten    --      6.9273                12.4636                10.4944

                     46                     47                     48
                      A                      A                      A
 Frequencies --   1326.0144              1342.2525              1383.2204
 Red. masses --      1.3778                 1.4343                 1.2869
 Frc consts  --      1.4274                 1.5225                 1.4507
 IR Inten    --     90.4528                13.0907                 9.9304

                     49                     50                     51
                      A                      A                      A
 Frequencies --   1398.1852              1415.3503              1428.8493
 Red. masses --      1.4197                 1.3904                 1.2824
 Frc consts  --      1.6352                 1.6410                 1.5426
 IR Inten    --      5.3766                45.2501                 6.3432

                     52                     53                     54
                      A                      A                      A
 Frequencies --   1444.4625              1456.7646              1462.5771
 Red. masses --      1.2530                 1.4999                 1.4210
 Frc consts  --      1.5403                 1.8754                 1.7909
 IR Inten    --     47.0898                13.6943                24.9654

                     55                     56                     57
                      A                      A                      A
 Frequencies --   1465.8955              1473.3210              1518.8925
 Red. masses --      1.4583                 1.2905                 1.0823
 Frc consts  --      1.8464                 1.6505                 1.4711
 IR Inten    --      5.2273                37.5193                13.7223

                     58                     59                     60
                      A                      A                      A
 Frequencies --   1528.3712              3006.8728              3028.9288
 Red. masses --      1.0827                 1.0825                 1.0612
 Frc consts  --      1.4901                 5.7663                 5.7360
 IR Inten    --      6.5499                36.2724                36.9475

                     61                     62                     63
                      A                      A                      A
 Frequencies --   3033.7442              3073.7887              3085.7933
 Red. masses --      1.0565                 1.0923                 1.1037
 Frc consts  --      5.7291                 6.0803                 6.1923
 IR Inten    --     35.7733                30.7706                42.3117

                     64                     65                     66
                      A                      A                      A
 Frequencies --   3088.4878              3109.7830              3126.7531
 Red. masses --      1.1010                 1.0856                 1.0862
 Frc consts  --      6.1875                 6.1857                 6.2567
 IR Inten    --     23.2750                12.0294                13.8121

                     67                     68                     69
                      A                      A                      A
 Frequencies --   3789.0217              3860.9425              3868.4697
 Red. masses --      1.0654                 1.0656                 1.0654
 Frc consts  --      9.0117                 9.3592                 9.3940
 IR Inten    --    146.6947                46.0391               101.9801

                     70                     71                     72
                      A                      A                      A
 Frequencies --   3868.8501              3942.7432              3948.4079
 Red. masses --      1.0655                 1.0668                 1.0669
 Frc consts  --      9.3966                 9.7704                 9.7998
 IR Inten    --     27.5168                50.6860                58.1575

 - Thermochemistry -
 -------------------
 Temperature   298.150 Kelvin.  Pressure   1.00000 Atm.
 Atom     1 has atomic number  6 and mass  12.00000

 Molecular mass:   182.07904 amu.
 Principal axes and moments of inertia in atomic units:
                           1         2         3
     Eigenvalues --  1454.654282838.385283177.34258
           X            0.99967   0.01976   0.01636
           Y           -0.01996   0.99973   0.01215
           Z           -0.01612  -0.01247   0.99979
 This molecule is an asymmetric top.
 Rotational symmetry number  1.
 Warning -- assumption of classical behavior for rotation
           may cause significant error
 Rotational temperatures (Kelvin)      0.05954     0.03052     0.02726
 Rotational constants (GHZ):           1.24067     0.63583     0.56800
 Zero-point vibrational energy     583705.4 (Joules/Mol)
                                  139.50895 (Kcal/Mol)
 Warning -- explicit consideration of  22 degrees of freedom as
           vibrations may cause significant error
 Vibrational temperatures:     89.54   109.28   140.95   188.02   199.06
          (Kelvin)            261.56   295.41   316.01   337.67   364.52
                              401.60   415.94   458.01   475.27   515.50
                              565.45   624.43   641.65   670.23   703.70
                              729.32   840.71   959.80   986.69  1156.64
                             1197.95  1270.71  1381.94  1438.93  1448.19
                             1540.38  1546.53  1580.65  1604.47  1607.61
                             1641.72  1672.83  1684.77  1751.93  1762.99
                             1796.56  1817.91  1833.42  1852.36  1883.23
                             1907.84  1931.20  1990.15  2011.68  2036.37
                             2055.80  2078.26  2095.96  2104.32  2109.10
                             2119.78  2185.35  2198.99  4326.22  4357.95
                             4364.88  4422.50  4439.77  4443.65  4474.28
                             4498.70  5451.56  5555.04  5565.87  5566.41
                             5672.73  5680.88

 Zero-point correction=                           0.222322 (Hartree/Particle)
 Thermal correction to Energy=                    0.236165
 Thermal correction to Enthalpy=                  0.237110
 Thermal correction to Gibbs Free Energy=         0.182792
 Sum of electronic and zero-point Energies=           -688.255889
 Sum of electronic and thermal Energies=              -688.242045
 Sum of electronic and thermal Enthalpies=            -688.241101
 Sum of electronic and thermal Free Energies=         -688.295419

                     E (Thermal)             CV                S
                      KCal/Mol        Cal/Mol-Kelvin    Cal/Mol-Kelvin
 Total                  148.196             51.351            114.321
 Electronic               0.000              0.000              0.000
 Translational            0.889              2.981             41.504
 Rotational               0.889              2.981             30.951
 Vibrational            146.419             45.390             41.865
 Vibration     1          0.597              1.972              4.385
 Vibration     2          0.599              1.965              3.993
 Vibration     3          0.603              1.951              3.494
 Vibration     4          0.612              1.923              2.936
 Vibration     5          0.614              1.915              2.827
 Vibration     6          0.630              1.865              2.310
 Vibration     7          0.640              1.832              2.085
 Vibration     8          0.647              1.811              1.962
 Vibration     9          0.655              1.788              1.843
 Vibration    10          0.665              1.757              1.707
 Vibration    11          0.679              1.712              1.539
 Vibration    12          0.686              1.694              1.479
 Vibration    13          0.705              1.639              1.319
 Vibration    14          0.713              1.615              1.258
 Vibration    15          0.733              1.558              1.130
 Vibration    16          0.760              1.485              0.989
 Vibration    17          0.795              1.396              0.846
 Vibration    18          0.805              1.370              0.808
 Vibration    19          0.823              1.326              0.749
 Vibration    20          0.845              1.274              0.686
 Vibration    21          0.862              1.235              0.641
 Vibration    22          0.941              1.065              0.477

                           ! Non-Optimized Parameters !
 Normal termination of Gaussian 16 at Wed Oct 11 15:25:53 2023.
