 Gaussian 16, Revision C.01,
 Gaussian 16:  ES64L-G16RevC.01  3-Jul-2019

 ---------------------------------------------
 # opt freq wb97xd/Def2TZVPP geom=connectivity
 ---------------------------------------------

 -------------------
 Title Card Required
 -------------------
 Symbolic Z-matrix:
 Charge =  0 Multiplicity = 1

 SCF Done:  E(RwB97XD) =  -688.474577049     A.U. after   13 cycles
 SCF Done:  E(RwB97XD) =  -688.479104985     A.U. after   12 cycles
 SCF Done:  E(RwB97XD) =  -688.480833599     A.U. after   12 cycles
 SCF Done:  E(RwB97XD) =  -688.481682551     A.U. after   12 cycles
 SCF Done:  E(RwB97XD) =  -688.482494603     A.U. after   11 cycles
 SCF Done:  E(RwB97XD) =  -688.482740159     A.U. after   11 cycles
 SCF Done:  E(RwB97XD) =  -688.482742796     A.U. after   10 cycles
 SCF Done:  E(RwB97XD) =  -688.482776749     A.U. after    9 cycles
 SCF Done:  E(RwB97XD) =  -688.482777811     A.U. after    8 cycles
 SCF Done:  E(RwB97XD) =  -688.482777166     A.U. after    8 cycles
 SCF Done:  E(RwB97XD) =  -688.482769905     A.U. after    9 cycles
 SCF Done:  E(RwB97XD) =  -688.482777774     A.U. after    8 cycles
 SCF Done:  E(RwB97XD) =  -688.482778313     A.U. after    7 cycles
 Optimization completed.
    -- Stationary point found.
 Normal termination of Gaussian 16 at Wed Oct 11 14:51:32 2023.

 ----------------------------------------------------------------------
 #N Geom=AllCheck Guess=TCheck SCRF=Check GenChk RwB97XD/def2TZVPP Freq
 ----------------------------------------------------------------------

 Structure from the checkpoint file:  "MannitolConformerOpt_42.chk"
 -------------------
 Title Card Required
 -------------------
 Charge =  0 Multiplicity = 1

                         Standard orientation:
 ---------------------------------------------------------------------
 Center     Atomic      Atomic             Coordinates (Angstroms)
 Number     Number       Type             X           Y           Z
 ---------------------------------------------------------------------
      1          6           0        0.239789    0.016032   -0.728709
      2          6           0       -0.239781    0.016111    0.728697
      3          6           0        1.761450    0.006820   -0.897680
      4          6           0       -1.761441    0.006897    0.897673
      5          1           0        0.161043    0.903426    1.217808
      6          1           0       -0.161046    0.903285   -1.217920
      7          6           0        2.492713    1.206373   -0.299869
      8          1           0        1.949183    0.028183   -1.974964
      9          6           0       -2.492724    1.206388    0.299761
     10          1           0       -1.949170    0.028351    1.974956
     11          1           0        3.507278    1.221591   -0.710731
     12          1           0        1.996465    2.129239   -0.605719
     13          1           0       -1.996470    2.129286    0.605504
     14          1           0       -3.507277    1.221645    0.710651
     15          8           0        2.528956    1.213667    1.108705
     16          1           0        2.997810    0.430326    1.398011
     17          8           0        2.309124   -1.215272   -0.429097
     18          1           0        1.867474   -1.410687    0.408820
     19          8           0       -0.297827   -1.107177   -1.430772
     20          1           0        0.357988   -1.808003   -1.378411
     21          8           0        0.297852   -1.107009    1.430889
     22          1           0       -0.357950   -1.807852    1.378606
     23          8           0       -2.309100   -1.215241    0.429196
     24          1           0       -1.867453   -1.410717   -0.408710
     25          8           0       -2.529010    1.213536   -1.108812
     26          1           0       -2.997883    0.430171   -1.398021
 ---------------------------------------------------------------------

 SCF Done:  E(RwB97XD) =  -688.482778313     A.U. after    1 cycles

 The electronic state is 1-A.
 Alpha  occ. eigenvalues --  -19.27112 -19.27112 -19.25783 -19.25783 -19.25672
 Alpha  occ. eigenvalues --  -19.25672 -10.34549 -10.34528 -10.34461 -10.34461
 Alpha  occ. eigenvalues --  -10.33685 -10.33685  -1.17466  -1.15080  -1.13957
 Alpha  occ. eigenvalues --   -1.13884  -1.12427  -1.11837  -0.89432  -0.86025
 Alpha  occ. eigenvalues --   -0.81250  -0.75648  -0.72397  -0.69960  -0.65566
 Alpha  occ. eigenvalues --   -0.61965  -0.61313  -0.60957  -0.60007  -0.57265
 Alpha  occ. eigenvalues --   -0.57083  -0.56244  -0.54795  -0.52269  -0.51621
 Alpha  occ. eigenvalues --   -0.49769  -0.48957  -0.48651  -0.47041  -0.44885
 Alpha  occ. eigenvalues --   -0.44229  -0.43209  -0.41613  -0.40869  -0.39392
 Alpha  occ. eigenvalues --   -0.39315  -0.36424  -0.36071  -0.34936
 Alpha virt. eigenvalues --    0.09060   0.11283   0.11572   0.12754   0.13634
 Alpha virt. eigenvalues --    0.14938   0.15455   0.17788   0.17826   0.18868
 Alpha virt. eigenvalues --    0.19640   0.20176   0.21521   0.21996   0.22484

 Mulliken charges:
               1
     1  C    0.099465
     2  C    0.099464
     3  C    0.126030
     4  C    0.126034
     5  H    0.094532
     6  H    0.094532
     7  C    0.011485
     8  H    0.087001
     9  C    0.011487
    10  H    0.087001
    11  H    0.093950
    12  H    0.067434
    13  H    0.067434
    14  H    0.093949
    15  O   -0.344930
    16  H    0.173806
    17  O   -0.413503
    18  H    0.205925
    19  O   -0.389211
    20  H    0.188016
    21  O   -0.389214
    22  H    0.188017
    23  O   -0.413506
    24  H    0.205928
    25  O   -0.344930
    26  H    0.173805
 Sum of Mulliken charges =  -0.00000

 Dipole moment (field-independent basis, Debye):
    X=              0.0000    Y=             -0.1209    Z=              0.0000  Tot=              0.1209
 Quadrupole moment (field-independent basis, Debye-Ang):
   XX=            -73.8927   YY=            -72.9689   ZZ=            -73.7916
   XY=             -0.0001   XZ=             -2.4935   YZ=             -0.0002

  Exact polarizability:     103.757      -0.000      90.628      -2.459      -0.000      89.330
 Approx polarizability:     101.563      -0.000     105.160      -0.126      -0.000     103.491

                      1                      2                      3
                      A                      A                      A
 Frequencies --     57.1055                92.8783               112.2924
 Red. masses --      6.1702                 3.1818                 3.4478
 Frc consts  --      0.0119                 0.0162                 0.0256
 IR Inten    --      0.2234                 0.5887                 2.7572

                      4                      5                      6
                      A                      A                      A
 Frequencies --    121.0030               123.5176               182.2547
 Red. masses --      5.0447                 6.8102                 5.7708
 Frc consts  --      0.0435                 0.0612                 0.1129
 IR Inten    --     11.4207                 0.4050                27.0663

                      7                      8                      9
                      A                      A                      A
 Frequencies --    209.9084               269.2019               270.1845
 Red. masses --      4.3912                 7.4694                 4.1766
 Frc consts  --      0.1140                 0.3189                 0.1796
 IR Inten    --      0.4701                 4.8274                 2.2179

                     10                     11                     12
                      A                      A                      A
 Frequencies --    279.8865               296.6869               318.3386
 Red. masses --      5.6557                 2.2291                 9.3777
 Frc consts  --      0.2610                 0.1156                 0.5599
 IR Inten    --      4.3016                68.3964                 3.9508

                     13                     14                     15
                      A                      A                      A
 Frequencies --    351.9268               361.4225               389.3528
 Red. masses --      1.2584                 1.5930                 2.3097
 Frc consts  --      0.0918                 0.1226                 0.2063
 IR Inten    --     71.4654               258.0137                41.0033

                     16                     17                     18
                      A                      A                      A
 Frequencies --    406.9591               428.0248               469.5858
 Red. masses --      2.5695                 1.1343                 4.4461
 Frc consts  --      0.2507                 0.1224                 0.5776
 IR Inten    --      1.0880               179.1609                14.9812

                     19                     20                     21
                      A                      A                      A
 Frequencies --    486.8242               610.2415               703.7815
 Red. masses --      1.0665                 3.6426                 1.1094
 Frc consts  --      0.1489                 0.7992                 0.3238
 IR Inten    --      7.1562                11.6550                81.8890

                     22                     23                     24
                      A                      A                      A
 Frequencies --    713.8445               742.8259               767.1788
 Red. masses --      4.6730                 3.3225                 1.1459
 Frc consts  --      1.4030                 1.0802                 0.3974
 IR Inten    --     45.8255                 4.9753                12.6387

                     25                     26                     27
                      A                      A                      A
 Frequencies --    816.4560               843.9804               880.8820
 Red. masses --      3.9670                 3.8879                 2.9633
 Frc consts  --      1.5580                 1.6317                 1.3548
 IR Inten    --      6.6421                46.0209                33.2090

                     28                     29                     30
                      A                      A                      A
 Frequencies --    912.7885               920.2184               959.8243
 Red. masses --      3.4515                 2.0157                 1.5749
 Frc consts  --      1.6943                 1.0057                 0.8548
 IR Inten    --      0.1815                52.0535                 0.0771

                     31                     32                     33
                      A                      A                      A
 Frequencies --   1029.2993              1029.7528              1080.6023
 Red. masses --      2.6211                 2.7258                 3.8486
 Frc consts  --      1.6362                 1.7030                 2.6478
 IR Inten    --      0.9246                27.6655                43.0865

                     34                     35                     36
                      A                      A                      A
 Frequencies --   1110.3473              1111.4676              1127.9955
 Red. masses --      2.2722                 1.9962                 2.8146
 Frc consts  --      1.6505                 1.4530                 2.1100
 IR Inten    --     74.8436                99.4744               129.6041

                     37                     38                     39
                      A                      A                      A
 Frequencies --   1160.4884              1166.2971              1225.1019
 Red. masses --      3.4324                 2.6915                 1.1069
 Frc consts  --      2.7235                 2.1571                 0.9788
 IR Inten    --    114.8724                14.0251                 2.2871

                     40                     41                     42
                      A                      A                      A
 Frequencies --   1240.7725              1247.8736              1272.7726
 Red. masses --      1.2041                 1.2709                 1.2771
 Frc consts  --      1.0921                 1.1660                 1.2189
 IR Inten    --      7.5767                41.5717                25.5031

                     43                     44                     45
                      A                      A                      A
 Frequencies --   1317.5650              1337.3060              1363.0409
 Red. masses --      1.4599                 1.5074                 1.4298
 Frc consts  --      1.4932                 1.5883                 1.5651
 IR Inten    --     16.2167                 1.8942                 4.7309

                     46                     47                     48
                      A                      A                      A
 Frequencies --   1365.0014              1381.3509              1397.4804
 Red. masses --      1.4396                 1.3271                 1.2881
 Frc consts  --      1.5804                 1.4920                 1.4821
 IR Inten    --     35.3128                19.8857                 0.5302

                     49                     50                     51
                      A                      A                      A
 Frequencies --   1403.8840              1414.8054              1422.3017
 Red. masses --      1.2029                 1.3592                 1.3792
 Frc consts  --      1.3968                 1.6030                 1.6439
 IR Inten    --      9.3111                 0.5604                11.1338

                     52                     53                     54
                      A                      A                      A
 Frequencies --   1424.1986              1437.3126              1437.3445
 Red. masses --      1.2905                 1.2087                 1.3755
 Frc consts  --      1.5422                 1.4712                 1.6743
 IR Inten    --     82.7295                16.9913                 6.0220

                     55                     56                     57
                      A                      A                      A
 Frequencies --   1478.7543              1481.8646              1504.4377
 Red. masses --      1.2477                 1.2377                 1.0892
 Frc consts  --      1.6074                 1.6014                 1.4524
 IR Inten    --     81.5635                82.2152                 0.3557

                     58                     59                     60
                      A                      A                      A
 Frequencies --   1506.3182              3033.2215              3033.3221
 Red. masses --      1.0928                 1.0662                 1.0662
 Frc consts  --      1.4609                 5.7798                 5.7799
 IR Inten    --     20.6362                56.4407                10.0768

                     61                     62                     63
                      A                      A                      A
 Frequencies --   3063.5203              3063.5996              3101.8216
 Red. masses --      1.0846                 1.0845                 1.0996
 Frc consts  --      5.9975                 5.9973                 6.2334
 IR Inten    --     82.4598                 5.4905                29.5422

                     64                     65                     66
                      A                      A                      A
 Frequencies --   3102.1336              3116.9067              3124.2416
 Red. masses --      1.0998                 1.0864                 1.0865
 Frc consts  --      6.2359                 6.2187                 6.2485
 IR Inten    --     12.3512                 2.3039                18.9773

                     67                     68                     69
                      A                      A                      A
 Frequencies --   3715.9113              3725.1475              3843.6447
 Red. masses --      1.0663                 1.0660                 1.0657
 Frc consts  --      8.6750                 8.7156                 9.2762
 IR Inten    --     29.3038               399.4165                71.9634

                     70                     71                     72
                      A                      A                      A
 Frequencies --   3845.9912              3902.2401              3902.3319
 Red. masses --      1.0655                 1.0659                 1.0659
 Frc consts  --      9.2855                 9.5626                 9.5631
 IR Inten    --     55.9293                43.3994                31.5915

 - Thermochemistry -
 -------------------
 Temperature   298.150 Kelvin.  Pressure   1.00000 Atm.
 Atom     1 has atomic number  6 and mass  12.00000

 Molecular mass:   182.07904 amu.
 Principal axes and moments of inertia in atomic units:
                           1         2         3
     Eigenvalues --  1281.382412980.363273078.99642
           X            0.99994  -0.00000  -0.01136
           Y            0.00000   1.00000  -0.00001
           Z            0.01136   0.00001   0.99994
 This molecule is an asymmetric top.
 Rotational symmetry number  1.
 Warning -- assumption of classical behavior for rotation
           may cause significant error
 Rotational temperatures (Kelvin)      0.06759     0.02906     0.02813
 Rotational constants (GHZ):           1.40843     0.60554     0.58615
 Zero-point vibrational energy     587062.3 (Joules/Mol)
                                  140.31125 (Kcal/Mol)
 Warning -- explicit consideration of  20 degrees of freedom as
           vibrations may cause significant error
 Vibrational temperatures:     82.16   133.63   161.56   174.10   177.71
          (Kelvin)            262.22   302.01   387.32   388.74   402.69
                              426.87   458.02   506.34   520.01   560.19
                              585.52   615.83   675.63   700.43   878.00
                             1012.58  1027.06  1068.76  1103.80  1174.70
                             1214.30  1267.39  1313.30  1323.99  1380.97
                             1480.93  1481.58  1554.75  1597.54  1599.15
                             1622.93  1669.68  1678.04  1762.65  1785.19
                             1795.41  1831.24  1895.68  1924.09  1961.11
                             1963.93  1987.46  2010.66  2019.88  2035.59
                             2046.37  2049.10  2067.97  2068.02  2127.60
                             2132.07  2164.55  2167.26  4364.13  4364.27
                             4407.72  4407.84  4462.83  4463.28  4484.53
                             4495.09  5346.37  5359.66  5530.15  5533.52
                             5614.45  5614.59

 Zero-point correction=                           0.223600 (Hartree/Particle)
 Thermal correction to Energy=                    0.236786
 Thermal correction to Enthalpy=                  0.237730
 Thermal correction to Gibbs Free Energy=         0.184740
 Sum of electronic and zero-point Energies=           -688.259178
 Sum of electronic and thermal Energies=              -688.245992
 Sum of electronic and thermal Enthalpies=            -688.245048
 Sum of electronic and thermal Free Energies=         -688.298038

                     E (Thermal)             CV                S
                      KCal/Mol        Cal/Mol-Kelvin    Cal/Mol-Kelvin
 Total                  148.586             49.725            111.527
 Electronic               0.000              0.000              0.000
 Translational            0.889              2.981             41.504
 Rotational               0.889              2.981             30.842
 Vibrational            146.808             43.763             39.181
 Vibration     1          0.596              1.975              4.555
 Vibration     2          0.602              1.954              3.599
 Vibration     3          0.607              1.939              3.229
 Vibration     4          0.609              1.932              3.084
 Vibration     5          0.610              1.929              3.045
 Vibration     6          0.630              1.864              2.305
 Vibration     7          0.642              1.826              2.044
 Vibration     8          0.674              1.730              1.601
 Vibration     9          0.674              1.728              1.595
 Vibration    10          0.680              1.711              1.534
 Vibration    11          0.690              1.680              1.436
 Vibration    12          0.705              1.639              1.319
 Vibration    13          0.728              1.571              1.158
 Vibration    14          0.736              1.552              1.116
 Vibration    15          0.757              1.493              1.003
 Vibration    16          0.772              1.455              0.937
 Vibration    17          0.790              1.409              0.865
 Vibration    18          0.827              1.318              0.739
 Vibration    19          0.843              1.279              0.692
 Vibration    20          0.969              1.010              0.432

 Optimization completed.
    -- Stationary point found.
 Normal termination of Gaussian 16 at Wed Oct 11 15:32:56 2023.
