 Gaussian 16, Revision C.01,
 Gaussian 16:  ES64L-G16RevC.01  3-Jul-2019

 ---------------------------------------------
 # opt freq wb97xd/Def2TZVPP geom=connectivity
 ---------------------------------------------

 -------------------
 Title Card Required
 -------------------
 Symbolic Z-matrix:
 Charge =  0 Multiplicity = 1

 SCF Done:  E(RwB97XD) =  -688.470985778     A.U. after   14 cycles
 SCF Done:  E(RwB97XD) =  -688.478844907     A.U. after   12 cycles
 SCF Done:  E(RwB97XD) =  -688.479149830     A.U. after   11 cycles
 SCF Done:  E(RwB97XD) =  -688.480656574     A.U. after   11 cycles
 SCF Done:  E(RwB97XD) =  -688.480843799     A.U. after   11 cycles
 SCF Done:  E(RwB97XD) =  -688.481033338     A.U. after   11 cycles
 SCF Done:  E(RwB97XD) =  -688.481221950     A.U. after   11 cycles
 SCF Done:  E(RwB97XD) =  -688.481261536     A.U. after   11 cycles
 SCF Done:  E(RwB97XD) =  -688.481326279     A.U. after   10 cycles
 SCF Done:  E(RwB97XD) =  -688.481347920     A.U. after   10 cycles
 SCF Done:  E(RwB97XD) =  -688.481352397     A.U. after    8 cycles
 SCF Done:  E(RwB97XD) =  -688.481353726     A.U. after    8 cycles
 SCF Done:  E(RwB97XD) =  -688.481354392     A.U. after    8 cycles
 SCF Done:  E(RwB97XD) =  -688.481354855     A.U. after    8 cycles
 SCF Done:  E(RwB97XD) =  -688.481355127     A.U. after    7 cycles
 SCF Done:  E(RwB97XD) =  -688.481355258     A.U. after    7 cycles
 SCF Done:  E(RwB97XD) =  -688.481355377     A.U. after    7 cycles
 SCF Done:  E(RwB97XD) =  -688.481355415     A.U. after    6 cycles
 Optimization completed.
    -- Stationary point found.
 Normal termination of Gaussian 16 at Wed Oct 11 15:31:04 2023.

 ----------------------------------------------------------------------
 #N Geom=AllCheck Guess=TCheck SCRF=Check GenChk RwB97XD/def2TZVPP Freq
 ----------------------------------------------------------------------

 Structure from the checkpoint file:  "MannitolConformerOpt_28.chk"
 -------------------
 Title Card Required
 -------------------
 Charge =  0 Multiplicity = 1

                         Standard orientation:
 ---------------------------------------------------------------------
 Center     Atomic      Atomic             Coordinates (Angstroms)
 Number     Number       Type             X           Y           Z
 ---------------------------------------------------------------------
      1          6           0        0.499138   -0.033470   -0.589385
      2          6           0       -0.622174   -0.749745    0.166070
      3          6           0        1.441398    0.799435    0.284275
      4          6           0       -1.593589    0.152220    0.940938
      5          1           0       -0.181251   -1.447491    0.880511
      6          1           0        0.051108    0.651681   -1.318822
      7          6           0        2.385902   -0.047106    1.140270
      8          1           0        0.829126    1.411972    0.950746
      9          6           0       -2.167752    1.294183    0.114032
     10          1           0       -1.056480    0.606458    1.776615
     11          1           0        1.825676   -0.815731    1.684790
     12          1           0        2.869195    0.597126    1.874197
     13          1           0       -1.381175    2.022187   -0.111733
     14          1           0       -2.942228    1.785884    0.707406
     15          8           0        3.417230   -0.610399    0.361642
     16          1           0        2.987574   -1.149710   -0.310464
     17          8           0        2.184547    1.696939   -0.505734
     18          1           0        2.983292    1.231952   -0.770652
     19          8           0        1.261966   -1.009841   -1.284379
     20          1           0        0.636520   -1.649212   -1.635088
     21          8           0       -1.337661   -1.572337   -0.750392
     22          1           0       -1.867344   -0.980501   -1.298631
     23          8           0       -2.611153   -0.635097    1.510660
     24          1           0       -2.849527   -1.305061    0.865415
     25          8           0       -2.716482    0.766572   -1.088184
     26          1           0       -3.149590    1.460635   -1.580394
 ---------------------------------------------------------------------

 SCF Done:  E(RwB97XD) =  -688.481355415     A.U. after    1 cycles

 The electronic state is 1-A.
 Alpha  occ. eigenvalues --  -19.28509 -19.26888 -19.26443 -19.25534 -19.24580
 Alpha  occ. eigenvalues --  -19.24531 -10.35323 -10.35126 -10.35124 -10.34443
 Alpha  occ. eigenvalues --  -10.34184 -10.33205  -1.17463  -1.15887  -1.14616
 Alpha  occ. eigenvalues --   -1.13404  -1.12215  -1.11335  -0.90216  -0.85656
 Alpha  occ. eigenvalues --   -0.80907  -0.76790  -0.72048  -0.69120  -0.66128
 Alpha  occ. eigenvalues --   -0.64705  -0.62441  -0.61019  -0.57695  -0.57531
 Alpha  occ. eigenvalues --   -0.56560  -0.55816  -0.54755  -0.54238  -0.51950
 Alpha  occ. eigenvalues --   -0.50242  -0.50014  -0.48781  -0.46985  -0.44864
 Alpha  occ. eigenvalues --   -0.43157  -0.42633  -0.41480  -0.40736  -0.39551
 Alpha  occ. eigenvalues --   -0.37884  -0.37378  -0.36255  -0.35159
 Alpha virt. eigenvalues --    0.08085   0.10772   0.11491   0.12841   0.13783
 Alpha virt. eigenvalues --    0.14536   0.15933   0.16570   0.17850   0.18343
 Alpha virt. eigenvalues --    0.19256   0.19700   0.20544   0.21706   0.22146

 Mulliken charges:
               1
     1  C    0.040708
     2  C    0.112435
     3  C    0.144784
     4  C    0.171004
     5  H    0.103889
     6  H    0.098731
     7  C    0.007541
     8  H    0.066435
     9  C   -0.058345
    10  H    0.059547
    11  H    0.068944
    12  H    0.088095
    13  H    0.089038
    14  H    0.110933
    15  O   -0.377998
    16  H    0.205397
    17  O   -0.367894
    18  H    0.189752
    19  O   -0.379620
    20  H    0.185516
    21  O   -0.417401
    22  H    0.207784
    23  O   -0.359345
    24  H    0.188040
    25  O   -0.333350
    26  H    0.155382
 Sum of Mulliken charges =  -0.00000

 Dipole moment (field-independent basis, Debye):
    X=             -3.0100    Y=              1.2676    Z=             -0.9961  Tot=              3.4145
 Quadrupole moment (field-independent basis, Debye-Ang):
   XX=            -79.5287   YY=            -72.0186   ZZ=            -71.1612
   XY=             -7.4812   XZ=              6.9606   YZ=              1.5327

  Exact polarizability:     105.952      -1.076      89.829       0.667       1.041      88.134
 Approx polarizability:     104.715       0.251     102.984       0.073       2.145     101.742

                      1                      2                      3
                      A                      A                      A
 Frequencies --     34.6071                62.1673                99.6496
 Red. masses --      5.1917                 5.4387                 5.6871
 Frc consts  --      0.0037                 0.0124                 0.0333
 IR Inten    --      1.4681                 4.5875                 0.7138

                      4                      5                      6
                      A                      A                      A
 Frequencies --    142.9458               168.8013               189.6188
 Red. masses --      5.3158                 3.7323                 4.5320
 Frc consts  --      0.0640                 0.0627                 0.0960
 IR Inten    --      2.1353                 2.2172                11.6163

                      7                      8                      9
                      A                      A                      A
 Frequencies --    215.2817               229.2745               251.9422
 Red. masses --      1.3531                 2.3889                 4.8337
 Frc consts  --      0.0369                 0.0740                 0.1808
 IR Inten    --     68.2628                41.2647                 8.2785

                     10                     11                     12
                      A                      A                      A
 Frequencies --    271.6644               313.1541               315.7658
 Red. masses --      5.3265                 3.7318                 3.4389
 Frc consts  --      0.2316                 0.2156                 0.2020
 IR Inten    --      9.7967                17.2150                17.9892

                     13                     14                     15
                      A                      A                      A
 Frequencies --    342.6577               361.4454               398.4826
 Red. masses --      4.3755                 3.5512                 1.3859
 Frc consts  --      0.3027                 0.2733                 0.1297
 IR Inten    --      6.4740                 0.6323                42.1592

                     16                     17                     18
                      A                      A                      A
 Frequencies --    424.1510               432.6841               482.1361
 Red. masses --      1.4293                 2.3507                 1.3135
 Frc consts  --      0.1515                 0.2593                 0.1799
 IR Inten    --     76.0950                13.5639                43.7098

                     19                     20                     21
                      A                      A                      A
 Frequencies --    488.8632               550.1485               579.1406
 Red. masses --      2.3276                 2.8527                 3.1598
 Frc consts  --      0.3277                 0.5087                 0.6244
 IR Inten    --     10.7541                23.0372                 4.3872

                     22                     23                     24
                      A                      A                      A
 Frequencies --    641.7035               676.7796               798.2876
 Red. masses --      1.1409                 1.1131                 3.8490
 Frc consts  --      0.2768                 0.3004                 1.4452
 IR Inten    --    164.6525               177.1325                18.5324

                     25                     26                     27
                      A                      A                      A
 Frequencies --    804.2713               830.2228               841.6336
 Red. masses --      3.8992                 2.8943                 3.2139
 Frc consts  --      1.4860                 1.1754                 1.3413
 IR Inten    --     26.0629                10.8317                34.5236

                     28                     29                     30
                      A                      A                      A
 Frequencies --    957.3574               979.3408               992.2009
 Red. masses --      2.6811                 1.9199                 2.3858
 Frc consts  --      1.4478                 1.0849                 1.3838
 IR Inten    --      4.3252                 8.4194                 4.2768

                     31                     32                     33
                      A                      A                      A
 Frequencies --   1003.9030              1071.1720              1109.1143
 Red. masses --      2.2089                 4.1830                 4.4120
 Frc consts  --      1.3117                 2.8279                 3.1977
 IR Inten    --     30.1492                78.1154               113.3035

                     34                     35                     36
                      A                      A                      A
 Frequencies --   1122.7355              1128.6187              1146.4853
 Red. masses --      2.3901                 3.1183                 3.5909
 Frc consts  --      1.7751                 2.3402                 2.7809
 IR Inten    --    189.8177                49.5678                 2.3957

                     37                     38                     39
                      A                      A                      A
 Frequencies --   1158.9500              1174.1277              1213.1336
 Red. masses --      2.3267                 3.0415                 1.1034
 Frc consts  --      1.8413                 2.4704                 0.9567
 IR Inten    --     58.4382                19.8771                67.2294

                     40                     41                     42
                      A                      A                      A
 Frequencies --   1226.2744              1250.4616              1267.1261
 Red. masses --      1.1128                 1.1693                 1.1713
 Frc consts  --      0.9860                 1.0772                 1.1081
 IR Inten    --     69.7474                31.4431                 5.0749

                     43                     44                     45
                      A                      A                      A
 Frequencies --   1295.5599              1299.2426              1312.7179
 Red. masses --      1.4290                 1.1726                 1.3483
 Frc consts  --      1.4132                 1.1662                 1.3689
 IR Inten    --      5.8009                55.3316                40.6652

                     46                     47                     48
                      A                      A                      A
 Frequencies --   1335.4584              1381.6790              1391.6211
 Red. masses --      1.4191                 1.3613                 1.3008
 Frc consts  --      1.4912                 1.5312                 1.4842
 IR Inten    --      0.7010                 1.6916                 2.5670

                     49                     50                     51
                      A                      A                      A
 Frequencies --   1396.9157              1419.4541              1433.6975
 Red. masses --      1.4135                 1.2352                 1.3442
 Frc consts  --      1.6252                 1.4663                 1.6279
 IR Inten    --      8.3191                26.7888                36.4212

                     52                     53                     54
                      A                      A                      A
 Frequencies --   1440.8851              1452.0324              1461.6278
 Red. masses --      1.4393                 1.3330                 1.4640
 Frc consts  --      1.7606                 1.6559                 1.8428
 IR Inten    --     15.7342                83.9960                21.9527

                     55                     56                     57
                      A                      A                      A
 Frequencies --   1465.7122              1474.0687              1513.0905
 Red. masses --      1.2617                 1.2436                 1.0842
 Frc consts  --      1.5971                 1.5921                 1.4624
 IR Inten    --     56.9067                34.6217                 9.7288

                     58                     59                     60
                      A                      A                      A
 Frequencies --   1518.2420              3026.0636              3027.0577
 Red. masses --      1.0821                 1.0687                 1.0781
 Frc consts  --      1.4696                 5.7660                 5.8203
 IR Inten    --     12.5244                39.3809                20.5245

                     61                     62                     63
                      A                      A                      A
 Frequencies --   3032.7983              3069.6624              3083.0906
 Red. masses --      1.0656                 1.0853                 1.0845
 Frc consts  --      5.7748                 6.0251                 6.0738
 IR Inten    --     33.1767                43.5824                24.7235

                     64                     65                     66
                      A                      A                      A
 Frequencies --   3088.0358              3092.2269              3117.0840
 Red. masses --      1.1036                 1.0869                 1.0959
 Frc consts  --      6.2006                 6.1231                 6.2735
 IR Inten    --     27.3832                34.3799                28.8784

                     67                     68                     69
                      A                      A                      A
 Frequencies --   3776.5646              3813.7244              3844.8448
 Red. masses --      1.0655                 1.0653                 1.0652
 Frc consts  --      8.9536                 9.1290                 9.2780
 IR Inten    --    161.6808               130.4382                81.6723

                     70                     71                     72
                      A                      A                      A
 Frequencies --   3851.1539              3864.8740              3945.7558
 Red. masses --      1.0652                 1.0654                 1.0669
 Frc consts  --      9.3085                 9.3763                 9.7867
 IR Inten    --     35.4334                69.1835                63.9892

 - Thermochemistry -
 -------------------
 Temperature   298.150 Kelvin.  Pressure   1.00000 Atm.
 Atom     1 has atomic number  6 and mass  12.00000

 Molecular mass:   182.07904 amu.
 Principal axes and moments of inertia in atomic units:
                           1         2         3
     Eigenvalues --  1188.732383381.992643494.56300
           X            0.99990  -0.01137   0.00868
           Y            0.01110   0.99948   0.03042
           Z           -0.00902  -0.03032   0.99950
 This molecule is an asymmetric top.
 Rotational symmetry number  1.
 Warning -- assumption of classical behavior for rotation
           may cause significant error
 Rotational temperatures (Kelvin)      0.07286     0.02561     0.02479
 Rotational constants (GHZ):           1.51821     0.53363     0.51644
 Zero-point vibrational energy     586011.2 (Joules/Mol)
                                  140.06004 (Kcal/Mol)
 Warning -- explicit consideration of  21 degrees of freedom as
           vibrations may cause significant error
 Vibrational temperatures:     49.79    89.44   143.37   205.67   242.87
          (Kelvin)            272.82   309.74   329.87   362.49   390.86
                              450.56   454.32   493.01   520.04   573.33
                              610.26   622.54   693.69   703.37   791.54
                              833.25   923.27   973.73  1148.56  1157.17
                             1194.51  1210.92  1377.42  1409.05  1427.56
                             1444.39  1541.18  1595.77  1615.37  1623.83
                             1649.54  1667.47  1689.31  1745.43  1764.34
                             1799.14  1823.11  1864.02  1869.32  1888.71
                             1921.43  1987.93  2002.23  2009.85  2042.28
                             2062.77  2073.11  2089.15  2102.96  2108.83
                             2120.86  2177.00  2184.41  4353.83  4355.26
                             4363.52  4416.56  4435.88  4442.99  4449.02
                             4484.79  5433.63  5487.10  5531.87  5540.95
                             5560.69  5677.06

 Zero-point correction=                           0.223200 (Hartree/Particle)
 Thermal correction to Energy=                    0.236557
 Thermal correction to Enthalpy=                  0.237501
 Thermal correction to Gibbs Free Energy=         0.183637
 Sum of electronic and zero-point Energies=           -688.258156
 Sum of electronic and thermal Energies=              -688.244798
 Sum of electronic and thermal Enthalpies=            -688.243854
 Sum of electronic and thermal Free Energies=         -688.297718

                     E (Thermal)             CV                S
                      KCal/Mol        Cal/Mol-Kelvin    Cal/Mol-Kelvin
 Total                  148.442             50.190            113.366
 Electronic               0.000              0.000              0.000
 Translational            0.889              2.981             41.504
 Rotational               0.889              2.981             31.019
 Vibrational            146.664             44.228             40.843
 Vibration     1          0.594              1.983              5.546
 Vibration     2          0.597              1.972              4.387
 Vibration     3          0.604              1.949              3.461
 Vibration     4          0.616              1.910              2.764
 Vibration     5          0.625              1.881              2.449
 Vibration     6          0.633              1.854              2.232
 Vibration     7          0.645              1.818              1.998
 Vibration     8          0.652              1.796              1.885
 Vibration     9          0.664              1.760              1.717
 Vibration    10          0.675              1.725              1.586
 Vibration    11          0.701              1.649              1.346
 Vibration    12          0.703              1.644              1.332
 Vibration    13          0.722              1.590              1.200
 Vibration    14          0.736              1.552              1.116
 Vibration    15          0.765              1.473              0.968
 Vibration    16          0.786              1.418              0.878
 Vibration    17          0.794              1.399              0.850
 Vibration    18          0.838              1.290              0.704
 Vibration    19          0.845              1.275              0.687
 Vibration    20          0.905              1.139              0.544
 Vibration    21          0.936              1.076              0.487

 Optimization completed.
    -- Stationary point found.
 Normal termination of Gaussian 16 at Wed Oct 11 16:20:05 2023.
