 Gaussian 16, Revision C.01,
 Gaussian 16:  ES64L-G16RevC.01  3-Jul-2019

 ---------------------------------------------
 # opt freq wb97xd/def2tzvpp geom=connectivity
 ---------------------------------------------

 --------------------------------
 Mannitol Conformer Optimziations
 --------------------------------
 Symbolic Z-matrix:
 Charge =  0 Multiplicity = 1

 SCF Done:  E(RwB97XD) =  -688.469234175     A.U. after   14 cycles
 SCF Done:  E(RwB97XD) =  -688.478298414     A.U. after   11 cycles
 SCF Done:  E(RwB97XD) =  -688.476897257     A.U. after   12 cycles
 SCF Done:  E(RwB97XD) =  -688.478723177     A.U. after   11 cycles
 SCF Done:  E(RwB97XD) =  -688.479485102     A.U. after   11 cycles
 SCF Done:  E(RwB97XD) =  -688.479759378     A.U. after   11 cycles
 SCF Done:  E(RwB97XD) =  -688.479670658     A.U. after   11 cycles
 SCF Done:  E(RwB97XD) =  -688.479839038     A.U. after   11 cycles
 SCF Done:  E(RwB97XD) =  -688.479866547     A.U. after   10 cycles
 SCF Done:  E(RwB97XD) =  -688.479884038     A.U. after   10 cycles
 SCF Done:  E(RwB97XD) =  -688.479888622     A.U. after    8 cycles
 SCF Done:  E(RwB97XD) =  -688.479891778     A.U. after    8 cycles
 SCF Done:  E(RwB97XD) =  -688.479892237     A.U. after    7 cycles
 SCF Done:  E(RwB97XD) =  -688.479892462     A.U. after    7 cycles
 Optimization completed.
    -- Stationary point found.
 Normal termination of Gaussian 16 at Wed Sep 27 11:49:17 2023.

 ----------------------------------------------------------------------
 #N Geom=AllCheck Guess=TCheck SCRF=Check GenChk RwB97XD/def2TZVPP Freq
 ----------------------------------------------------------------------

 Structure from the checkpoint file:  "MannitolConformerOpt_3.chk"
 --------------------------------
 Mannitol Conformer Optimziations
 --------------------------------
 Charge =  0 Multiplicity = 1

                         Standard orientation:
 ---------------------------------------------------------------------
 Center     Atomic      Atomic             Coordinates (Angstroms)
 Number     Number       Type             X           Y           Z
 ---------------------------------------------------------------------
      1          6           0       -0.826340    0.645342   -0.602016
      2          6           0        0.469001    0.731126    0.214489
      3          6           0       -1.540100   -0.711410   -0.641713
      4          6           0        1.605658   -0.122278   -0.333612
      5          1           0        0.269941    0.409541    1.246524
      6          1           0       -0.587698    0.921361   -1.631668
      7          6           0       -1.833086   -1.301052    0.729311
      8          1           0       -0.894249   -1.423751   -1.153474
      9          6           0        2.929850    0.222988    0.325290
     10          1           0        1.701563    0.061367   -1.412044
     11          1           0       -2.463599   -2.182284    0.588529
     12          1           0       -0.895201   -1.602419    1.201187
     13          1           0        2.822946    0.145991    1.413120
     14          1           0        3.222735    1.240585    0.066301
     15          8           0       -2.511122   -0.329543    1.527149
     16          1           0       -2.751982   -0.714146    2.366783
     17          8           0       -2.714459   -0.593812   -1.415502
     18          1           0       -3.136885    0.232550   -1.171655
     19          8           0       -1.716981    1.659998   -0.144532
     20          1           0       -2.091820    1.343996    0.687075
     21          8           0        0.908689    2.072027    0.203598
     22          1           0        0.114054    2.612458    0.229218
     23          8           0        1.299308   -1.481826   -0.097375
     24          1           0        2.118096   -1.967887   -0.219970
     25          8           0        3.866237   -0.730456   -0.158038
     26          1           0        4.688823   -0.636758    0.317182
 ---------------------------------------------------------------------

 SCF Done:  E(RwB97XD) =  -688.479892462     A.U. after    1 cycles

 The electronic state is 1-A.
 Alpha  occ. eigenvalues --  -19.27138 -19.26423 -19.25517 -19.25241 -19.24622
 Alpha  occ. eigenvalues --  -19.23954 -10.33781 -10.33699 -10.33668 -10.33240
 Alpha  occ. eigenvalues --  -10.33201 -10.33179  -1.16047  -1.15234  -1.14066
 Alpha  occ. eigenvalues --   -1.12490  -1.12125  -1.10840  -0.88540  -0.85463
 Alpha  occ. eigenvalues --   -0.80578  -0.75117  -0.70244  -0.68295  -0.64480
 Alpha  occ. eigenvalues --   -0.63283  -0.62762  -0.60298  -0.59089  -0.56689
 Alpha  occ. eigenvalues --   -0.55668  -0.54968  -0.53426  -0.52287  -0.50273
 Alpha  occ. eigenvalues --   -0.49901  -0.48380  -0.47983  -0.45977  -0.45448
 Alpha  occ. eigenvalues --   -0.42902  -0.41473  -0.40724  -0.38589  -0.38020
 Alpha  occ. eigenvalues --   -0.37644  -0.36731  -0.36253  -0.34687
 Alpha virt. eigenvalues --    0.09156   0.09802   0.12837   0.13258   0.14425
 Alpha virt. eigenvalues --    0.15462   0.16904   0.17171   0.18563   0.19434
 Alpha virt. eigenvalues --    0.20193   0.20548   0.21335   0.21826   0.22720

 Mulliken charges:
               1
     1  C    0.125744
     2  C    0.055937
     3  C    0.201956
     4  C    0.161596
     5  H    0.066355
     6  H    0.093555
     7  C   -0.064919
     8  H    0.065930
     9  C   -0.027299
    10  H    0.057904
    11  H    0.102679
    12  H    0.093421
    13  H    0.083455
    14  H    0.099000
    15  O   -0.339058
    16  H    0.152913
    17  O   -0.362988
    18  H    0.182917
    19  O   -0.423253
    20  H    0.207005
    21  O   -0.364789
    22  H    0.189789
    23  O   -0.362818
    24  H    0.179101
    25  O   -0.343816
    26  H    0.169683
 Sum of Mulliken charges =  -0.00000

 Dipole moment (field-independent basis, Debye):
    X=              1.5257    Y=             -0.9763    Z=              3.3546  Tot=              3.8124
 Quadrupole moment (field-independent basis, Debye-Ang):
   XX=            -63.9006   YY=            -74.1166   ZZ=            -69.1574
   XY=             -1.0892   XZ=             -4.3732   YZ=             -3.4274

  Exact polarizability:     108.232       0.192      93.111      -0.122      -0.592      85.316
 Approx polarizability:     104.552      -2.198     104.740      -1.109       0.009      99.498

                      1                      2                      3
                      A                      A                      A
 Frequencies --     48.1126                71.1316                90.9871
 Red. masses --      5.1228                 4.6950                 5.4867
 Frc consts  --      0.0070                 0.0140                 0.0268
 IR Inten    --      1.4086                 3.5244                 2.3133

                      4                      5                      6
                      A                      A                      A
 Frequencies --    128.7994               135.4042               179.5647
 Red. masses --      6.2045                 3.1220                 4.5347
 Frc consts  --      0.0606                 0.0337                 0.0861
 IR Inten    --      1.6687                 1.7287                 4.3140

                      7                      8                      9
                      A                      A                      A
 Frequencies --    205.9461               214.3731               239.3753
 Red. masses --      1.9179                 1.5704                 1.1686
 Frc consts  --      0.0479                 0.0425                 0.0395
 IR Inten    --     25.9475                88.4922               106.0064

                     10                     11                     12
                      A                      A                      A
 Frequencies --    263.0349               288.5032               297.7237
 Red. masses --      4.8985                 4.2631                 3.7205
 Frc consts  --      0.1997                 0.2091                 0.1943
 IR Inten    --      2.7596                 9.5239                23.6587

                     13                     14                     15
                      A                      A                      A
 Frequencies --    328.6119               344.5395               373.9337
 Red. masses --      3.4995                 4.8832                 4.6474
 Frc consts  --      0.2226                 0.3415                 0.3829
 IR Inten    --     12.7110                11.0098                 5.0294

                     16                     17                     18
                      A                      A                      A
 Frequencies --    398.7346               411.3644               454.1798
 Red. masses --      1.4013                 2.1783                 1.3228
 Frc consts  --      0.1313                 0.2172                 0.1608
 IR Inten    --     48.1518                 8.9212                67.5059

                     19                     20                     21
                      A                      A                      A
 Frequencies --    502.1179               505.5381               526.1153
 Red. masses --      1.1924                 3.3561                 3.1336
 Frc consts  --      0.1771                 0.5053                 0.5110
 IR Inten    --    104.8430                18.6411                10.6928

                     22                     23                     24
                      A                      A                      A
 Frequencies --    576.3451               620.3406               685.4336
 Red. masses --      3.2447                 3.0224                 1.1233
 Frc consts  --      0.6350                 0.6853                 0.3109
 IR Inten    --      5.5407                28.4077               164.0095

                     25                     26                     27
                      A                      A                      A
 Frequencies --    805.1512               831.5635               910.3497
 Red. masses --      3.7755                 2.9520                 2.3803
 Frc consts  --      1.4420                 1.2027                 1.1622
 IR Inten    --     29.1230                18.3215                17.0018

                     28                     29                     30
                      A                      A                      A
 Frequencies --    961.1077              1002.0791              1029.7325
 Red. masses --      2.7958                 2.1553                 3.0115
 Frc consts  --      1.5216                 1.2751                 1.8814
 IR Inten    --      9.0305                22.5991                39.7673

                     31                     32                     33
                      A                      A                      A
 Frequencies --   1062.8138              1083.8972              1104.2512
 Red. masses --      2.4605                 4.3996                 3.3115
 Frc consts  --      1.6375                 3.0454                 2.3791
 IR Inten    --     12.7088               109.1091                12.2444

                     34                     35                     36
                      A                      A                      A
 Frequencies --   1106.6097              1132.8360              1135.4599
 Red. masses --      3.3438                 3.2046                 2.3329
 Frc consts  --      2.4125                 2.4230                 1.7721
 IR Inten    --    126.9813               101.8094                96.1961

                     37                     38                     39
                      A                      A                      A
 Frequencies --   1157.9363              1171.0064              1213.3891
 Red. masses --      2.9842                 2.7848                 1.1428
 Frc consts  --      2.3574                 2.2499                 0.9913
 IR Inten    --     25.3440                15.9989                64.4174

                     40                     41                     42
                      A                      A                      A
 Frequencies --   1227.7742              1247.7556              1261.8224
 Red. masses --      1.1265                 1.2443                 1.1521
 Frc consts  --      1.0005                 1.1414                 1.0808
 IR Inten    --     16.6296                57.9483                34.5938

                     43                     44                     45
                      A                      A                      A
 Frequencies --   1283.4876              1303.0042              1303.9029
 Red. masses --      1.1468                 1.2169                 1.1928
 Frc consts  --      1.1131                 1.2173                 1.1948
 IR Inten    --      7.0377                31.1699                28.2688

                     46                     47                     48
                      A                      A                      A
 Frequencies --   1321.7977              1335.0084              1377.6068
 Red. masses --      1.2073                 1.4131                 1.3522
 Frc consts  --      1.2428                 1.4839                 1.5120
 IR Inten    --     63.5289                 6.0438                76.5787

                     49                     50                     51
                      A                      A                      A
 Frequencies --   1383.3946              1401.7701              1414.5100
 Red. masses --      1.2155                 1.3579                 1.3243
 Frc consts  --      1.3706                 1.5721                 1.5611
 IR Inten    --     17.4556                10.2834                 3.3708

                     52                     53                     54
                      A                      A                      A
 Frequencies --   1437.0901              1453.1061              1456.9270
 Red. masses --      1.2850                 1.4747                 1.4855
 Frc consts  --      1.5636                 1.8347                 1.8578
 IR Inten    --     22.5908                 5.6154                 7.9249

                     55                     56                     57
                      A                      A                      A
 Frequencies --   1472.7410              1492.1455              1518.6070
 Red. masses --      1.2435                 1.8986                 1.0859
 Frc consts  --      1.5891                 2.4906                 1.4755
 IR Inten    --     60.8907                 3.3968                 5.4034

                     58                     59                     60
                      A                      A                      A
 Frequencies --   1525.6923              2996.1144              3009.9255
 Red. masses --      1.0788                 1.0807                 1.0831
 Frc consts  --      1.4796                 5.7157                 5.7815
 IR Inten    --     14.0402                 7.9224                35.5451

                     61                     62                     63
                      A                      A                      A
 Frequencies --   3030.0911              3051.1273              3079.3742
 Red. masses --      1.0665                 1.0576                 1.0861
 Frc consts  --      5.7690                 5.8007                 6.0682
 IR Inten    --     56.3874                33.2580                29.5530

                     64                     65                     66
                      A                      A                      A
 Frequencies --   3103.8601              3114.6195              3125.5766
 Red. masses --      1.1082                 1.0995                 1.0860
 Frc consts  --      6.2901                 6.2843                 6.2510
 IR Inten    --     22.6889                22.0931                 8.2208

                     67                     68                     69
                      A                      A                      A
 Frequencies --   3764.8653              3842.1024              3862.0086
 Red. masses --      1.0656                 1.0651                 1.0656
 Frc consts  --      8.8989                 9.2633                 9.3639
 IR Inten    --    176.9609                72.4426                87.3686

                     70                     71                     72
                      A                      A                      A
 Frequencies --   3874.8379              3949.2361              3949.5498
 Red. masses --      1.0653                 1.0669                 1.0668
 Frc consts  --      9.4242                 9.8036                 9.8048
 IR Inten    --     51.1776                57.6303                54.9188

 - Thermochemistry -
 -------------------
 Temperature   298.150 Kelvin.  Pressure   1.00000 Atm.
 Atom     1 has atomic number  6 and mass  12.00000

 Molecular mass:   182.07904 amu.
 Principal axes and moments of inertia in atomic units:
                           1         2         3
     Eigenvalues --  1202.551853377.217183802.95975
           X            0.99998   0.00597  -0.00229
           Y           -0.00602   0.99975  -0.02158
           Z            0.00216   0.02160   0.99976
 This molecule is an asymmetric top.
 Rotational symmetry number  1.
 Warning -- assumption of classical behavior for rotation
           may cause significant error
 Rotational temperatures (Kelvin)      0.07203     0.02565     0.02278
 Rotational constants (GHZ):           1.50076     0.53439     0.47456
 Zero-point vibrational energy     583597.2 (Joules/Mol)
                                  139.48307 (Kcal/Mol)
 Warning -- explicit consideration of  23 degrees of freedom as
           vibrations may cause significant error
 Vibrational temperatures:     69.22   102.34   130.91   185.31   194.82
          (Kelvin)            258.35   296.31   308.44   344.41   378.45
                              415.09   428.36   472.80   495.72   538.01
                              573.69   591.86   653.46   722.44   727.36
                              756.96   829.23   892.53   986.19  1158.43
                             1196.43  1309.79  1382.82  1441.77  1481.56
                             1529.15  1559.49  1588.77  1592.16  1629.90
                             1633.67  1666.01  1684.82  1745.80  1766.49
                             1795.24  1815.48  1846.65  1874.73  1876.03
                             1901.77  1920.78  1982.07  1990.40  2016.83
                             2035.16  2067.65  2090.70  2096.19  2118.95
                             2146.86  2184.94  2195.13  4310.74  4330.61
                             4359.63  4389.89  4430.53  4465.76  4481.24
                             4497.01  5416.80  5527.93  5556.57  5575.03
                             5682.07  5682.52

 Zero-point correction=                           0.222280 (Hartree/Particle)
 Thermal correction to Energy=                    0.236081
 Thermal correction to Enthalpy=                  0.237025
 Thermal correction to Gibbs Free Energy=         0.182427
 Sum of electronic and zero-point Energies=           -688.257612
 Sum of electronic and thermal Energies=              -688.243812
 Sum of electronic and thermal Enthalpies=            -688.242867
 Sum of electronic and thermal Free Energies=         -688.297465

                     E (Thermal)             CV                S
                      KCal/Mol        Cal/Mol-Kelvin    Cal/Mol-Kelvin
 Total                  148.143             51.159            114.911
 Electronic               0.000              0.000              0.000
 Translational            0.889              2.981             41.504
 Rotational               0.889              2.981             31.113
 Vibrational            146.366             45.197             42.293
 Vibration     1          0.595              1.978              4.893
 Vibration     2          0.598              1.968              4.122
 Vibration     3          0.602              1.956              3.639
 Vibration     4          0.611              1.924              2.964
 Vibration     5          0.613              1.918              2.868
 Vibration     6          0.629              1.867              2.333
 Vibration     7          0.640              1.831              2.079
 Vibration     8          0.644              1.819              2.006
 Vibration     9          0.657              1.780              1.808
 Vibration    10          0.670              1.741              1.642
 Vibration    11          0.685              1.695              1.483
 Vibration    12          0.691              1.678              1.430
 Vibration    13          0.712              1.618              1.267
 Vibration    14          0.723              1.586              1.191
 Vibration    15          0.745              1.526              1.064
 Vibration    16          0.765              1.473              0.967
 Vibration    17          0.775              1.446              0.922
 Vibration    18          0.813              1.352              0.783
 Vibration    19          0.857              1.245              0.653
 Vibration    20          0.861              1.238              0.644
 Vibration    21          0.881              1.192              0.596
 Vibration    22          0.933              1.082              0.492
 Vibration    23          0.980              0.989              0.416

                           ! Non-Optimized Parameters !
 Normal termination of Gaussian 16 at Wed Sep 27 12:34:41 2023.
