 Gaussian 16, Revision C.01,
 Gaussian 16:  ES64L-G16RevC.01  3-Jul-2019

 ---------------------------------------------
 # opt freq wb97xd/def2tzvpp geom=connectivity
 ---------------------------------------------

 --------------------------------
 Mannitol Conformer Optimziations
 --------------------------------
 Symbolic Z-matrix:
 Charge =  0 Multiplicity = 1

 SCF Done:  E(RwB97XD) =  -688.469999119     A.U. after   13 cycles
 SCF Done:  E(RwB97XD) =  -688.478710898     A.U. after   12 cycles
 SCF Done:  E(RwB97XD) =  -688.478492533     A.U. after   11 cycles
 SCF Done:  E(RwB97XD) =  -688.479308821     A.U. after   12 cycles
 SCF Done:  E(RwB97XD) =  -688.479555320     A.U. after   12 cycles
 SCF Done:  E(RwB97XD) =  -688.479918675     A.U. after   11 cycles
 SCF Done:  E(RwB97XD) =  -688.479946607     A.U. after   11 cycles
 SCF Done:  E(RwB97XD) =  -688.479985471     A.U. after   10 cycles
 SCF Done:  E(RwB97XD) =  -688.479994422     A.U. after   10 cycles
 SCF Done:  E(RwB97XD) =  -688.480006897     A.U. after    9 cycles
 SCF Done:  E(RwB97XD) =  -688.480011972     A.U. after   10 cycles
 SCF Done:  E(RwB97XD) =  -688.480013621     A.U. after    8 cycles
 SCF Done:  E(RwB97XD) =  -688.480014023     A.U. after    8 cycles
 SCF Done:  E(RwB97XD) =  -688.480014155     A.U. after    6 cycles
 SCF Done:  E(RwB97XD) =  -688.480014237     A.U. after    6 cycles
 SCF Done:  E(RwB97XD) =  -688.480014289     A.U. after    6 cycles
 Optimization completed.
    -- Stationary point found.
 Normal termination of Gaussian 16 at Wed Sep 27 11:38:10 2023.

 ----------------------------------------------------------------------
 #N Geom=AllCheck Guess=TCheck SCRF=Check GenChk RwB97XD/def2TZVPP Freq
 ----------------------------------------------------------------------

 Structure from the checkpoint file:  "MannitolConformerOpt_10.chk"
 --------------------------------
 Mannitol Conformer Optimziations
 --------------------------------
 Charge =  0 Multiplicity = 1

                         Standard orientation:
 ---------------------------------------------------------------------
 Center     Atomic      Atomic             Coordinates (Angstroms)
 Number     Number       Type             X           Y           Z
 ---------------------------------------------------------------------
      1          6           0       -0.588530    0.789282   -0.575889
      2          6           0        0.168744   -0.427150   -0.047129
      3          6           0       -2.096661    0.744683   -0.287167
      4          6           0        1.635032   -0.524212   -0.460701
      5          1           0       -0.320987   -1.320154   -0.445676
      6          1           0       -0.457357    0.810658   -1.660886
      7          6           0       -2.855366   -0.429632   -0.907396
      8          1           0       -2.508875    1.659772   -0.719886
      9          6           0        2.518095    0.650590   -0.071409
     10          1           0        1.675643   -0.647020   -1.550396
     11          1           0       -2.531700   -0.582678   -1.938691
     12          1           0       -3.919584   -0.172776   -0.927859
     13          1           0        2.369678    0.890580    0.984630
     14          1           0        2.267660    1.527588   -0.667292
     15          8           0       -2.658246   -1.651347   -0.233540
     16          1           0       -2.951728   -1.530352    0.670363
     17          8           0       -2.349442    0.821392    1.105811
     18          1           0       -1.701557    0.257883    1.547407
     19          8           0       -0.061868    2.005997   -0.089564
     20          1           0       -0.382196    2.115083    0.808362
     21          8           0        0.058119   -0.435405    1.371239
     22          1           0        0.629074   -1.141696    1.684074
     23          8           0        2.108605   -1.701916    0.171090
     24          1           0        3.067716   -1.648513    0.165763
     25          8           0        3.854760    0.223493   -0.313346
     26          1           0        4.460911    0.862541    0.054707
 ---------------------------------------------------------------------

 SCF Done:  E(RwB97XD) =  -688.480014289     A.U. after    1 cycles

 The electronic state is 1-A.
 Alpha  occ. eigenvalues --  -19.26562 -19.26519 -19.25515 -19.25278 -19.25247
 Alpha  occ. eigenvalues --  -19.25015 -10.34464 -10.34105 -10.33962 -10.33803
 Alpha  occ. eigenvalues --  -10.33174 -10.33153  -1.16631  -1.15218  -1.13833
 Alpha  occ. eigenvalues --   -1.13129  -1.11790  -1.11420  -0.89032  -0.85586
 Alpha  occ. eigenvalues --   -0.80813  -0.75528  -0.71600  -0.68686  -0.64248
 Alpha  occ. eigenvalues --   -0.62351  -0.61276  -0.60724  -0.60133  -0.57408
 Alpha  occ. eigenvalues --   -0.56782  -0.55159  -0.53080  -0.52761  -0.51229
 Alpha  occ. eigenvalues --   -0.50335  -0.48341  -0.47638  -0.45692  -0.44739
 Alpha  occ. eigenvalues --   -0.43980  -0.43057  -0.41142  -0.39080  -0.38100
 Alpha  occ. eigenvalues --   -0.37300  -0.37056  -0.36676  -0.34722
 Alpha virt. eigenvalues --    0.09436   0.10303   0.11714   0.13200   0.14014
 Alpha virt. eigenvalues --    0.14585   0.16812   0.17517   0.18419   0.19306
 Alpha virt. eigenvalues --    0.19938   0.20550   0.21065   0.21838   0.22674

 Mulliken charges:
               1
     1  C    0.152541
     2  C    0.079749
     3  C    0.116380
     4  C    0.120811
     5  H    0.119078
     6  H    0.075695
     7  C    0.012474
     8  H    0.082753
     9  C   -0.012375
    10  H    0.059169
    11  H    0.064372
    12  H    0.092265
    13  H    0.082902
    14  H    0.091075
    15  O   -0.346276
    16  H    0.170553
    17  O   -0.410142
    18  H    0.205523
    19  O   -0.369092
    20  H    0.184880
    21  O   -0.390784
    22  H    0.184675
    23  O   -0.386922
    24  H    0.196811
    25  O   -0.348503
    26  H    0.172389
 Sum of Mulliken charges =  -0.00000

 Dipole moment (field-independent basis, Debye):
    X=              1.5633    Y=              0.9410    Z=              0.2186  Tot=              1.8377
 Quadrupole moment (field-independent basis, Debye-Ang):
   XX=            -65.6167   YY=            -78.7188   ZZ=            -68.4651
   XY=              3.6010   XZ=              5.3872   YZ=             -2.4770

  Exact polarizability:     109.502      -0.132      89.770       1.798      -0.659      86.215
 Approx polarizability:     103.162      -1.482     101.629       0.184      -0.808     104.208

                      1                      2                      3
                      A                      A                      A
 Frequencies --     38.7893                86.6586                95.7668
 Red. masses --      5.2069                 4.2040                 4.4401
 Frc consts  --      0.0046                 0.0186                 0.0240
 IR Inten    --      2.7967                 1.1441                 4.2994

                      4                      5                      6
                      A                      A                      A
 Frequencies --    117.8428               128.4276               174.4737
 Red. masses --      5.0100                 3.3595                 4.7900
 Frc consts  --      0.0410                 0.0326                 0.0859
 IR Inten    --      5.1913                 4.5840                20.0194

                      7                      8                      9
                      A                      A                      A
 Frequencies --    201.1739               239.0277               246.3330
 Red. masses --      4.1830                 3.4243                 1.2322
 Frc consts  --      0.0997                 0.1153                 0.0441
 IR Inten    --      3.7154                25.2900                85.5173

                     10                     11                     12
                      A                      A                      A
 Frequencies --    260.1695               285.5564               292.4874
 Red. masses --      2.6794                 2.5971                 4.7338
 Frc consts  --      0.1069                 0.1248                 0.2386
 IR Inten    --     17.2269                20.8404                 5.9469

                     13                     14                     15
                      A                      A                      A
 Frequencies --    323.8315               349.9291               368.2305
 Red. masses --      3.5627                 1.8701                 3.3551
 Frc consts  --      0.2201                 0.1349                 0.2680
 IR Inten    --      5.8235               152.6008                58.8547

                     16                     17                     18
                      A                      A                      A
 Frequencies --    370.2403               399.0694               468.7096
 Red. masses --      1.7414                 2.2912                 1.1467
 Frc consts  --      0.1406                 0.2150                 0.1484
 IR Inten    --     43.1687                76.5286                52.0392

                     19                     20                     21
                      A                      A                      A
 Frequencies --    500.2067               527.4653               563.2971
 Red. masses --      1.5771                 1.8942                 3.2437
 Frc consts  --      0.2325                 0.3105                 0.6064
 IR Inten    --     55.0985               108.0384                 4.9050

                     22                     23                     24
                      A                      A                      A
 Frequencies --    680.9040               693.8784               766.1458
 Red. masses --      1.0877                 4.2428                 4.2882
 Frc consts  --      0.2971                 1.2036                 1.4830
 IR Inten    --     47.4911                13.0944                44.1865

                     25                     26                     27
                      A                      A                      A
 Frequencies --    788.8384               837.3800               873.3035
 Red. masses --      3.3368                 4.1828                 2.8354
 Frc consts  --      1.2234                 1.7281                 1.2741
 IR Inten    --     22.4661                18.5301                14.9897

                     28                     29                     30
                      A                      A                      A
 Frequencies --    921.5855               936.1682              1000.8564
 Red. masses --      3.0865                 1.8351                 1.9789
 Frc consts  --      1.5445                 0.9476                 1.1679
 IR Inten    --     46.8735                 5.4612                 3.8550

                     31                     32                     33
                      A                      A                      A
 Frequencies --   1036.2479              1075.4054              1095.2207
 Red. masses --      2.3012                 4.1336                 3.0540
 Frc consts  --      1.4559                 2.8166                 2.1584
 IR Inten    --     28.4498                46.7175                61.2352

                     34                     35                     36
                      A                      A                      A
 Frequencies --   1102.5940              1114.7156              1135.6287
 Red. masses --      3.0179                 2.0682                 2.8032
 Frc consts  --      2.1617                 1.5142                 2.1300
 IR Inten    --     36.3709                92.0677                82.4873

                     37                     38                     39
                      A                      A                      A
 Frequencies --   1156.7095              1166.3027              1221.9910
 Red. masses --      3.0686                 2.9658                 1.1476
 Frc consts  --      2.4190                 2.3769                 1.0097
 IR Inten    --    139.1626                12.1638                72.3404

                     40                     41                     42
                      A                      A                      A
 Frequencies --   1242.8629              1254.7967              1261.1507
 Red. masses --      1.2079                 1.2154                 1.1913
 Frc consts  --      1.0993                 1.1275                 1.1164
 IR Inten    --      2.1862                 3.5973                45.4152

                     43                     44                     45
                      A                      A                      A
 Frequencies --   1276.9232              1308.8355              1325.1134
 Red. masses --      1.2102                 1.1750                 1.3597
 Frc consts  --      1.1626                 1.1860                 1.4067
 IR Inten    --     31.5945                48.7735                 8.1989

                     46                     47                     48
                      A                      A                      A
 Frequencies --   1361.4878              1369.5263              1389.8263
 Red. masses --      1.4635                 1.2603                 1.3029
 Frc consts  --      1.5983                 1.3927                 1.4828
 IR Inten    --      7.5127                 6.2471                20.3993

                     49                     50                     51
                      A                      A                      A
 Frequencies --   1401.8056              1414.3758              1422.2803
 Red. masses --      1.2077                 1.3283                 1.3145
 Frc consts  --      1.3982                 1.5656                 1.5667
 IR Inten    --      1.6227                 4.0567                15.9038

                     52                     53                     54
                      A                      A                      A
 Frequencies --   1426.2955              1436.0042              1460.6129
 Red. masses --      1.3701                 1.2200                 1.8005
 Frc consts  --      1.6422                 1.4823                 2.2632
 IR Inten    --     74.5605                18.0650                 6.7067

                     55                     56                     57
                      A                      A                      A
 Frequencies --   1475.3288              1479.5736              1507.7139
 Red. masses --      1.5374                 1.2905                 1.0906
 Frc consts  --      1.9715                 1.6644                 1.4606
 IR Inten    --     25.0502                75.4067                 7.5436

                     58                     59                     60
                      A                      A                      A
 Frequencies --   1515.1661              3015.1283              3030.6142
 Red. masses --      1.1061                 1.0837                 1.0664
 Frc consts  --      1.4962                 5.8044                 5.7709
 IR Inten    --      8.2376                26.2143                41.1041

                     61                     62                     63
                      A                      A                      A
 Frequencies --   3057.3423              3066.7957              3073.2593
 Red. masses --      1.0613                 1.0842                 1.0847
 Frc consts  --      5.8447                 6.0081                 6.0359
 IR Inten    --     23.2502                14.6029                17.0952

                     64                     65                     66
                      A                      A                      A
 Frequencies --   3079.4658              3100.8878              3125.0097
 Red. masses --      1.0860                 1.0990                 1.1044
 Frc consts  --      6.0678                 6.2264                 6.3543
 IR Inten    --     42.6507                31.2492                22.0506

                     67                     68                     69
                      A                      A                      A
 Frequencies --   3752.0783              3857.0482              3860.5909
 Red. masses --      1.0664                 1.0652                 1.0653
 Frc consts  --      8.8450                 9.3368                 9.3545
 IR Inten    --    221.7749               132.1909                33.8580

                     70                     71                     72
                      A                      A                      A
 Frequencies --   3874.7272              3896.2080              3948.3767
 Red. masses --      1.0655                 1.0656                 1.0668
 Frc consts  --      9.4249                 9.5310                 9.7992
 IR Inten    --     45.5834                37.1985                57.7759

 - Thermochemistry -
 -------------------
 Temperature   298.150 Kelvin.  Pressure   1.00000 Atm.
 Atom     1 has atomic number  6 and mass  12.00000

 Molecular mass:   182.07904 amu.
 Principal axes and moments of inertia in atomic units:
                           1         2         3
     Eigenvalues --  1089.887463378.607583836.41864
           X            0.99995   0.00606   0.00817
           Y           -0.00600   0.99996  -0.00656
           Z           -0.00821   0.00651   0.99995
 This molecule is an asymmetric top.
 Rotational symmetry number  1.
 Warning -- assumption of classical behavior for rotation
           may cause significant error
 Rotational temperatures (Kelvin)      0.07947     0.02564     0.02258
 Rotational constants (GHZ):           1.65590     0.53417     0.47042
 Zero-point vibrational energy     584428.2 (Joules/Mol)
                                  139.68170 (Kcal/Mol)
 Warning -- explicit consideration of  21 degrees of freedom as
           vibrations may cause significant error
 Vibrational temperatures:     55.81   124.68   137.79   169.55   184.78
          (Kelvin)            251.03   289.44   343.91   354.42   374.33
                              410.85   420.82   465.92   503.47   529.80
                              532.69   574.17   674.37   719.69   758.90
                              810.46   979.67   998.34  1102.31  1134.96
                             1204.80  1256.49  1325.96  1346.94  1440.01
                             1490.93  1547.27  1575.78  1586.39  1603.83
                             1633.92  1664.25  1678.05  1758.17  1788.20
                             1805.37  1814.51  1837.21  1883.12  1906.54
                             1958.88  1970.44  1999.65  2016.89  2034.97
                             2046.34  2052.12  2066.09  2101.50  2122.67
                             2128.78  2169.26  2179.99  4338.10  4360.38
                             4398.83  4412.43  4421.73  4430.66  4461.49
                             4496.19  5398.40  5549.43  5554.53  5574.87
                             5605.77  5680.83

 Zero-point correction=                           0.222597 (Hartree/Particle)
 Thermal correction to Energy=                    0.236307
 Thermal correction to Enthalpy=                  0.237251
 Thermal correction to Gibbs Free Energy=         0.182752
 Sum of electronic and zero-point Energies=           -688.257417
 Sum of electronic and thermal Energies=              -688.243708
 Sum of electronic and thermal Enthalpies=            -688.242763
 Sum of electronic and thermal Free Energies=         -688.297262

                     E (Thermal)             CV                S
                      KCal/Mol        Cal/Mol-Kelvin    Cal/Mol-Kelvin
 Total                  148.285             50.805            114.702
 Electronic               0.000              0.000              0.000
 Translational            0.889              2.981             41.504
 Rotational               0.889              2.981             31.025
 Vibrational            146.507             44.843             42.173
 Vibration     1          0.594              1.981              5.320
 Vibration     2          0.601              1.958              3.734
 Vibration     3          0.603              1.952              3.539
 Vibration     4          0.608              1.935              3.135
 Vibration     5          0.611              1.925              2.969
 Vibration     6          0.627              1.874              2.387
 Vibration     7          0.638              1.838              2.122
 Vibration     8          0.657              1.781              1.810
 Vibration     9          0.661              1.769              1.757
 Vibration    10          0.668              1.746              1.661
 Vibration    11          0.683              1.700              1.500
 Vibration    12          0.688              1.688              1.460
 Vibration    13          0.708              1.628              1.291
 Vibration    14          0.727              1.575              1.167
 Vibration    15          0.741              1.538              1.087
 Vibration    16          0.742              1.533              1.079
 Vibration    17          0.765              1.472              0.966
 Vibration    18          0.826              1.319              0.741
 Vibration    19          0.856              1.250              0.658
 Vibration    20          0.882              1.189              0.593
 Vibration    21          0.919              1.111              0.517

                           ! Non-Optimized Parameters !
 Normal termination of Gaussian 16 at Wed Sep 27 12:12:31 2023.
