 Gaussian 16, Revision C.01,
 Gaussian 16:  ES64L-G16RevC.01  3-Jul-2019

 ---------------------------------------------
 # opt freq wb97xd/def2tzvpp geom=connectivity
 ---------------------------------------------

 --------------------------------
 Mannitol Conformer Optimziations
 --------------------------------
 Symbolic Z-matrix:
 Charge =  0 Multiplicity = 1

 SCF Done:  E(RwB97XD) =  -688.473114413     A.U. after   13 cycles
 SCF Done:  E(RwB97XD) =  -688.481725042     A.U. after   12 cycles
 SCF Done:  E(RwB97XD) =  -688.481936483     A.U. after   12 cycles
 SCF Done:  E(RwB97XD) =  -688.483196176     A.U. after   11 cycles
 SCF Done:  E(RwB97XD) =  -688.483129144     A.U. after   12 cycles
 SCF Done:  E(RwB97XD) =  -688.483518352     A.U. after   11 cycles
 SCF Done:  E(RwB97XD) =  -688.483693893     A.U. after   11 cycles
 SCF Done:  E(RwB97XD) =  -688.483835919     A.U. after   10 cycles
 SCF Done:  E(RwB97XD) =  -688.483851469     A.U. after   10 cycles
 SCF Done:  E(RwB97XD) =  -688.483861000     A.U. after    9 cycles
 SCF Done:  E(RwB97XD) =  -688.483862735     A.U. after    8 cycles
 SCF Done:  E(RwB97XD) =  -688.483863364     A.U. after    7 cycles
 SCF Done:  E(RwB97XD) =  -688.483863430     A.U. after    6 cycles
 Optimization completed.
    -- Stationary point found.
 Normal termination of Gaussian 16 at Wed Sep 27 11:46:55 2023.

 ----------------------------------------------------------------------
 #N Geom=AllCheck Guess=TCheck SCRF=Check GenChk RwB97XD/def2TZVPP Freq
 ----------------------------------------------------------------------

 Structure from the checkpoint file:  "MannitolConformerOpt_22.chk"
 --------------------------------
 Mannitol Conformer Optimziations
 --------------------------------
 Charge =  0 Multiplicity = 1

                         Standard orientation:
 ---------------------------------------------------------------------
 Center     Atomic      Atomic             Coordinates (Angstroms)
 Number     Number       Type             X           Y           Z
 ---------------------------------------------------------------------
      1          6           0       -0.194002    0.284606    0.532420
      2          6           0        0.417204   -0.229692   -0.777061
      3          6           0       -1.721760    0.220941    0.560920
      4          6           0        1.947681   -0.228436   -0.831228
      5          1           0        0.075810    0.442835   -1.576014
      6          1           0        0.104559    1.332320    0.641483
      7          6           0       -2.416205    0.881353   -0.611801
      8          1           0       -2.052719    0.718971    1.477812
      9          6           0        2.627107    1.111158   -0.597870
     10          1           0        2.212786   -0.553189   -1.844543
     11          1           0       -2.174972    0.340939   -1.535440
     12          1           0       -2.061288    1.907296   -0.717230
     13          1           0        2.148010    1.870267   -1.217920
     14          1           0        3.669578    1.027979   -0.921238
     15          8           0       -3.808158    0.945807   -0.421555
     16          1           0       -4.113861    0.058143   -0.229384
     17          8           0       -2.164105   -1.136719    0.586768
     18          1           0       -1.755606   -1.539196    1.357571
     19          8           0        0.213747   -0.459759    1.664604
     20          1           0        1.138833   -0.693407    1.547150
     21          8           0        0.047911   -1.563679   -1.071246
     22          1           0       -0.823372   -1.725784   -0.690893
     23          8           0        2.482553   -1.148711    0.111728
     24          1           0        2.042978   -1.987199   -0.054377
     25          8           0        2.554705    1.566157    0.732760
     26          1           0        3.015884    0.935676    1.286277
 ---------------------------------------------------------------------

 SCF Done:  E(RwB97XD) =  -688.483863430     A.U. after    1 cycles

 The electronic state is 1-A.
 Alpha  occ. eigenvalues --  -19.27455 -19.27279 -19.26129 -19.25587 -19.25503
 Alpha  occ. eigenvalues --  -19.25035 -10.35029 -10.34863 -10.34491 -10.34442
 Alpha  occ. eigenvalues --  -10.34362 -10.33684  -1.17379  -1.15884  -1.13914
 Alpha  occ. eigenvalues --   -1.13205  -1.12515  -1.12222  -0.89770  -0.86848
 Alpha  occ. eigenvalues --   -0.80570  -0.76573  -0.71808  -0.69465  -0.66245
 Alpha  occ. eigenvalues --   -0.62348  -0.61881  -0.61468  -0.59561  -0.58272
 Alpha  occ. eigenvalues --   -0.57161  -0.55741  -0.53528  -0.52284  -0.52032
 Alpha  occ. eigenvalues --   -0.51220  -0.49968  -0.47618  -0.46708  -0.45461
 Alpha  occ. eigenvalues --   -0.44758  -0.43278  -0.42585  -0.40246  -0.38226
 Alpha  occ. eigenvalues --   -0.37839  -0.36949  -0.36269  -0.35835
 Alpha virt. eigenvalues --    0.09062   0.10813   0.11625   0.13065   0.13922
 Alpha virt. eigenvalues --    0.14485   0.15871   0.16814   0.17502   0.18333
 Alpha virt. eigenvalues --    0.19283   0.19478   0.21056   0.21786   0.22364

 Mulliken charges:
               1
     1  C    0.086532
     2  C    0.096540
     3  C    0.124570
     4  C    0.090284
     5  H    0.066898
     6  H    0.081932
     7  C    0.032276
     8  H    0.105784
     9  C    0.018345
    10  H    0.095538
    11  H    0.074087
    12  H    0.069125
    13  H    0.070219
    14  H    0.098136
    15  O   -0.341979
    16  H    0.181920
    17  O   -0.381807
    18  H    0.187434
    19  O   -0.398951
    20  H    0.195711
    21  O   -0.406817
    22  H    0.208563
    23  O   -0.379997
    24  H    0.189588
    25  O   -0.339751
    26  H    0.175820
 Sum of Mulliken charges =  -0.00000

 Dipole moment (field-independent basis, Debye):
    X=              1.6775    Y=             -0.9542    Z=             -0.5476  Tot=              2.0060
 Quadrupole moment (field-independent basis, Debye-Ang):
   XX=            -76.4980   YY=            -74.2016   ZZ=            -72.3897
   XY=              3.4392   XZ=             -3.1976   YZ=             -4.5097

  Exact polarizability:     107.158       0.059      89.660      -2.015      -2.059      87.598
 Approx polarizability:     103.583      -0.201     104.597      -0.363      -2.596     101.570

                      1                      2                      3
                      A                      A                      A
 Frequencies --     61.5932                87.9399               109.5681
 Red. masses --      6.4840                 3.5413                 5.3522
 Frc consts  --      0.0145                 0.0161                 0.0379
 IR Inten    --      0.9298                 3.6834                 2.4678

                      4                      5                      6
                      A                      A                      A
 Frequencies --    119.5845               136.8089               169.3812
 Red. masses --      4.2934                 3.9811                 5.0354
 Frc consts  --      0.0362                 0.0439                 0.0851
 IR Inten    --      0.5306                 3.6885                22.0666

                      7                      8                      9
                      A                      A                      A
 Frequencies --    196.3261               252.7849               262.8911
 Red. masses --      4.5037                 5.2410                 4.6201
 Frc consts  --      0.1023                 0.1973                 0.1881
 IR Inten    --      5.4887                 5.5332                 3.0656

                     10                     11                     12
                      A                      A                      A
 Frequencies --    275.5674               300.4077               309.7596
 Red. masses --      2.1594                 2.8800                 3.4298
 Frc consts  --      0.0966                 0.1531                 0.1939
 IR Inten    --     42.1457                20.8151                14.5119

                     13                     14                     15
                      A                      A                      A
 Frequencies --    331.1968               378.1127               389.7550
 Red. masses --      1.7568                 3.1170                 1.2298
 Frc consts  --      0.1135                 0.2626                 0.1101
 IR Inten    --     88.2440                11.8418                93.0906

                     16                     17                     18
                      A                      A                      A
 Frequencies --    418.0940               443.7766               454.4693
 Red. masses --      2.0946                 1.8548                 1.1567
 Frc consts  --      0.2157                 0.2152                 0.1408
 IR Inten    --     61.4674               186.4008                59.0605

                     19                     20                     21
                      A                      A                      A
 Frequencies --    500.1902               526.7068               649.5926
 Red. masses --      3.2872                 2.8345                 2.4128
 Frc consts  --      0.4846                 0.4633                 0.5999
 IR Inten    --     76.4275                32.2175                20.1936

                     22                     23                     24
                      A                      A                      A
 Frequencies --    672.9013               711.9843               753.1355
 Red. masses --      1.0753                 1.3914                 3.8288
 Frc consts  --      0.2869                 0.4156                 1.2796
 IR Inten    --     85.5668                23.3738                 2.9683

                     25                     26                     27
                      A                      A                      A
 Frequencies --    823.0459               856.8055               883.4080
 Red. masses --      6.2962                 4.6162                 2.4980
 Frc consts  --      2.5129                 1.9966                 1.1486
 IR Inten    --     23.5477                15.0786                27.3981

                     28                     29                     30
                      A                      A                      A
 Frequencies --    901.5579               939.2226              1009.8639
 Red. masses --      2.4736                 1.8600                 2.0292
 Frc consts  --      1.1846                 0.9667                 1.2193
 IR Inten    --     14.2002                16.5083                 8.5557

                     31                     32                     33
                      A                      A                      A
 Frequencies --   1035.2813              1070.2046              1102.2483
 Red. masses --      2.6889                 2.8536                 2.4807
 Frc consts  --      1.6980                 1.9257                 1.7757
 IR Inten    --      6.0818                49.8395               127.7241

                     34                     35                     36
                      A                      A                      A
 Frequencies --   1104.9673              1117.4636              1140.0697
 Red. masses --      2.2274                 4.3457                 3.3792
 Frc consts  --      1.6023                 3.1972                 2.5878
 IR Inten    --     70.9729                56.3964                73.4851

                     37                     38                     39
                      A                      A                      A
 Frequencies --   1156.6893              1178.1558              1211.0269
 Red. masses --      3.0531                 3.9056                 1.1593
 Frc consts  --      2.4067                 3.1941                 1.0018
 IR Inten    --    108.3849                30.6889                10.6930

                     40                     41                     42
                      A                      A                      A
 Frequencies --   1222.4486              1282.6409              1289.8338
 Red. masses --      1.1751                 1.1397                 1.1280
 Frc consts  --      1.0346                 1.1047                 1.1057
 IR Inten    --      2.6729                28.9134                26.2285

                     43                     44                     45
                      A                      A                      A
 Frequencies --   1297.7126              1316.2187              1341.7196
 Red. masses --      1.2279                 1.1283                 1.2053
 Frc consts  --      1.2183                 1.1517                 1.2784
 IR Inten    --     18.6576                44.8931                 9.7309

                     46                     47                     48
                      A                      A                      A
 Frequencies --   1359.1850              1388.8171              1395.1506
 Red. masses --      1.3211                 1.2887                 1.2486
 Frc consts  --      1.4380                 1.4645                 1.4319
 IR Inten    --     77.4240                17.6298                17.5092

                     49                     50                     51
                      A                      A                      A
 Frequencies --   1404.6669              1417.9873              1421.6445
 Red. masses --      1.2773                 1.2733                 1.3401
 Frc consts  --      1.4849                 1.5084                 1.5958
 IR Inten    --     24.2262                16.0270                11.6458

                     52                     53                     54
                      A                      A                      A
 Frequencies --   1428.3831              1443.6516              1447.8812
 Red. masses --      1.2143                 1.3667                 1.7045
 Frc consts  --      1.4597                 1.6782                 2.1053
 IR Inten    --     21.7081                71.4976                26.7726

                     55                     56                     57
                      A                      A                      A
 Frequencies --   1468.0947              1484.4452              1505.1175
 Red. masses --      1.6113                 1.6428                 1.0907
 Frc consts  --      2.0461                 2.1329                 1.4557
 IR Inten    --     12.9787                34.1603                 4.2971

                     58                     59                     60
                      A                      A                      A
 Frequencies --   1509.3446              2998.2399              3016.4440
 Red. masses --      1.0985                 1.0820                 1.0698
 Frc consts  --      1.4745                 5.7307                 5.7354
 IR Inten    --      1.3573                26.9001                26.7725

                     61                     62                     63
                      A                      A                      A
 Frequencies --   3023.3535              3042.4088              3046.0376
 Red. masses --      1.0796                 1.0718                 1.0836
 Frc consts  --      5.8142                 5.8451                 5.9238
 IR Inten    --     15.5931                70.1742                35.1427

                     64                     65                     66
                      A                      A                      A
 Frequencies --   3055.1063              3110.2690              3110.8943
 Red. masses --      1.0846                 1.0984                 1.0961
 Frc consts  --      5.9645                 6.2605                 6.2496
 IR Inten    --     35.3331                18.9542                22.5814

                     67                     68                     69
                      A                      A                      A
 Frequencies --   3758.5536              3826.0920              3855.3776
 Red. masses --      1.0670                 1.0661                 1.0651
 Frc consts  --      8.8807                 9.1955                 9.3277
 IR Inten    --    233.3300               170.5297                68.3983

                     70                     71                     72
                      A                      A                      A
 Frequencies --   3867.3138              3894.6443              3908.3943
 Red. masses --      1.0651                 1.0659                 1.0660
 Frc consts  --      9.3857                 9.5255                 9.5939
 IR Inten    --     60.3051                43.8329                43.4080

 - Thermochemistry -
 -------------------
 Temperature   298.150 Kelvin.  Pressure   1.00000 Atm.
 Atom     1 has atomic number  6 and mass  12.00000

 Molecular mass:   182.07904 amu.
 Principal axes and moments of inertia in atomic units:
                           1         2         3
     Eigenvalues --  1136.233223394.028703592.54084
           X            0.99998   0.00348  -0.00554
           Y           -0.00383   0.99793  -0.06413
           Z            0.00531   0.06415   0.99793
 This molecule is an asymmetric top.
 Rotational symmetry number  1.
 Warning -- assumption of classical behavior for rotation
           may cause significant error
 Rotational temperatures (Kelvin)      0.07623     0.02552     0.02411
 Rotational constants (GHZ):           1.58835     0.53174     0.50236
 Zero-point vibrational energy     586054.2 (Joules/Mol)
                                  140.07032 (Kcal/Mol)
 Warning -- explicit consideration of  20 degrees of freedom as
           vibrations may cause significant error
 Vibrational temperatures:     88.62   126.53   157.64   172.06   196.84
          (Kelvin)            243.70   282.47   363.70   378.24   396.48
                              432.22   445.68   476.52   544.02   560.77
                              601.54   638.50   653.88   719.66   757.81
                              934.62   968.15  1024.39  1083.59  1184.18
                             1232.75  1271.03  1297.14  1351.33  1452.97
                             1489.54  1539.79  1585.89  1589.80  1607.78
                             1640.31  1664.22  1695.10  1742.40  1758.83
                             1845.43  1855.78  1867.12  1893.75  1930.44
                             1955.56  1998.20  2007.31  2021.00  2040.17
                             2045.43  2055.12  2077.09  2083.18  2112.26
                             2135.79  2165.53  2171.61  4313.80  4339.99
                             4349.93  4377.35  4382.57  4395.62  4474.98
                             4475.88  5407.72  5504.89  5547.03  5564.20
                             5603.52  5623.31

 Zero-point correction=                           0.223216 (Hartree/Particle)
 Thermal correction to Energy=                    0.236541
 Thermal correction to Enthalpy=                  0.237485
 Thermal correction to Gibbs Free Energy=         0.184173
 Sum of electronic and zero-point Energies=           -688.260647
 Sum of electronic and thermal Energies=              -688.247323
 Sum of electronic and thermal Enthalpies=            -688.246379
 Sum of electronic and thermal Free Energies=         -688.299691

                     E (Thermal)             CV                S
                      KCal/Mol        Cal/Mol-Kelvin    Cal/Mol-Kelvin
 Total                  148.431             50.045            112.204
 Electronic               0.000              0.000              0.000
 Translational            0.889              2.981             41.504
 Rotational               0.889              2.981             31.005
 Vibrational            146.654             44.083             39.695
 Vibration     1          0.597              1.973              4.405
 Vibration     2          0.601              1.958              3.705
 Vibration     3          0.606              1.942              3.277
 Vibration     4          0.609              1.933              3.107
 Vibration     5          0.614              1.917              2.848
 Vibration     6          0.625              1.880              2.442
 Vibration     7          0.636              1.845              2.167
 Vibration     8          0.664              1.758              1.711
 Vibration     9          0.670              1.741              1.642
 Vibration    10          0.677              1.719              1.561
 Vibration    11          0.693              1.673              1.415
 Vibration    12          0.699              1.655              1.364
 Vibration    13          0.714              1.613              1.254
 Vibration    14          0.748              1.517              1.047
 Vibration    15          0.758              1.492              1.001
 Vibration    16          0.781              1.431              0.898
 Vibration    17          0.803              1.375              0.815
 Vibration    18          0.813              1.351              0.782
 Vibration    19          0.856              1.250              0.658
 Vibration    20          0.882              1.191              0.595

 Optimization completed.
    -- Stationary point found.
 Normal termination of Gaussian 16 at Wed Sep 27 12:24:18 2023.
