 Gaussian 16, Revision C.01,
 Gaussian 16:  ES64L-G16RevC.01  3-Jul-2019

 ---------------------------------------------
 # opt freq wb97xd/Def2TZVPP geom=connectivity
 ---------------------------------------------

 -------------------
 Title Card Required
 -------------------
 Symbolic Z-matrix:
 Charge =  0 Multiplicity = 1

 SCF Done:  E(RwB97XD) =  -688.463232229     A.U. after   14 cycles
 SCF Done:  E(RwB97XD) =  -688.474237657     A.U. after   11 cycles
 SCF Done:  E(RwB97XD) =  -688.475665942     A.U. after   12 cycles
 SCF Done:  E(RwB97XD) =  -688.473956586     A.U. after   12 cycles
 SCF Done:  E(RwB97XD) =  -688.476289876     A.U. after   11 cycles
 SCF Done:  E(RwB97XD) =  -688.477193800     A.U. after   12 cycles
 SCF Done:  E(RwB97XD) =  -688.478236853     A.U. after   12 cycles
 SCF Done:  E(RwB97XD) =  -688.478489454     A.U. after   11 cycles
 SCF Done:  E(RwB97XD) =  -688.477956881     A.U. after   12 cycles
 SCF Done:  E(RwB97XD) =  -688.478635921     A.U. after   12 cycles
 SCF Done:  E(RwB97XD) =  -688.478672056     A.U. after    9 cycles
 SCF Done:  E(RwB97XD) =  -688.478680693     A.U. after    9 cycles
 SCF Done:  E(RwB97XD) =  -688.478686713     A.U. after    9 cycles
 SCF Done:  E(RwB97XD) =  -688.478688285     A.U. after    8 cycles
 SCF Done:  E(RwB97XD) =  -688.478689068     A.U. after    8 cycles
 SCF Done:  E(RwB97XD) =  -688.478689291     A.U. after    7 cycles
 SCF Done:  E(RwB97XD) =  -688.478689446     A.U. after    7 cycles
 SCF Done:  E(RwB97XD) =  -688.478689509     A.U. after    6 cycles
 Optimization completed.
    -- Stationary point found.
 Normal termination of Gaussian 16 at Wed Oct 11 16:44:07 2023.

 ----------------------------------------------------------------------
 #N Geom=AllCheck Guess=TCheck SCRF=Check GenChk RwB97XD/def2TZVPP Freq
 ----------------------------------------------------------------------

 Structure from the checkpoint file:  "MannitolConformerOpt_39.chk"
 -------------------
 Title Card Required
 -------------------
 Charge =  0 Multiplicity = 1

                         Standard orientation:
 ---------------------------------------------------------------------
 Center     Atomic      Atomic             Coordinates (Angstroms)
 Number     Number       Type             X           Y           Z
 ---------------------------------------------------------------------
      1          6           0       -0.877919    0.745859   -0.658539
      2          6           0        0.163770    0.776829    0.467905
      3          6           0       -1.974324   -0.323969   -0.577671
      4          6           0        1.306631   -0.234677    0.375177
      5          1           0       -0.342311    0.613005    1.424563
      6          1           0       -0.367650    0.634917   -1.622641
      7          6           0       -1.533891   -1.776832   -0.451185
      8          1           0       -2.534172   -0.229934   -1.516713
      9          6           0        2.043883   -0.223487   -0.954549
     10          1           0        0.916844   -1.234606    0.569941
     11          1           0       -0.687589   -1.975987   -1.112145
     12          1           0       -2.363314   -2.414381   -0.775096
     13          1           0        2.310986    0.802943   -1.222817
     14          1           0        1.408752   -0.641794   -1.741300
     15          8           0       -1.145397   -2.110214    0.858418
     16          1           0       -1.780007   -1.688042    1.443000
     17          8           0       -2.832102   -0.072714    0.514644
     18          1           0       -2.957115    0.879858    0.546069
     19          8           0       -1.594712    1.967942   -0.651935
     20          1           0       -0.978629    2.649779   -0.369460
     21          8           0        0.707701    2.089469    0.440639
     22          1           0        1.466358    2.078385    1.029895
     23          8           0        2.200679    0.141074    1.413156
     24          1           0        3.027874   -0.315141    1.243873
     25          8           0        3.202395   -1.022895   -0.774913
     26          1           0        3.802565   -0.882642   -1.504065
 ---------------------------------------------------------------------

 SCF Done:  E(RwB97XD) =  -688.478689509     A.U. after    1 cycles

 The electronic state is 1-A.
 Alpha  occ. eigenvalues --  -19.27085 -19.25921 -19.25566 -19.25566 -19.25558
 Alpha  occ. eigenvalues --  -19.24738 -10.34579 -10.34267 -10.34196 -10.34139
 Alpha  occ. eigenvalues --  -10.33709 -10.33398  -1.16798  -1.15690  -1.14505
 Alpha  occ. eigenvalues --   -1.13065  -1.11841  -1.11028  -0.89277  -0.85432
 Alpha  occ. eigenvalues --   -0.80762  -0.76154  -0.71522  -0.68663  -0.64356
 Alpha  occ. eigenvalues --   -0.63117  -0.61526  -0.60160  -0.59209  -0.58177
 Alpha  occ. eigenvalues --   -0.57619  -0.56291  -0.53840  -0.52729  -0.51090
 Alpha  occ. eigenvalues --   -0.50032  -0.48825  -0.46524  -0.45490  -0.44751
 Alpha  occ. eigenvalues --   -0.44331  -0.43257  -0.42274  -0.38835  -0.38170
 Alpha  occ. eigenvalues --   -0.37702  -0.36889  -0.35957  -0.35569
 Alpha virt. eigenvalues --    0.09091   0.11036   0.11181   0.12758   0.14536
 Alpha virt. eigenvalues --    0.15326   0.16166   0.16893   0.18433   0.19184
 Alpha virt. eigenvalues --    0.20356   0.20672   0.21337   0.21852   0.23207

 Mulliken charges:
               1
     1  C    0.104733
     2  C    0.123099
     3  C    0.105357
     4  C    0.104274
     5  H    0.086947
     6  H    0.079408
     7  C    0.034509
     8  H    0.085287
     9  C   -0.038208
    10  H    0.121137
    11  H    0.058017
    12  H    0.093100
    13  H    0.097628
    14  H    0.060951
    15  O   -0.363208
    16  H    0.194608
    17  O   -0.391330
    18  H    0.196954
    19  O   -0.392893
    20  H    0.206893
    21  O   -0.392087
    22  H    0.190786
    23  O   -0.388588
    24  H    0.193203
    25  O   -0.343557
    26  H    0.172981
 Sum of Mulliken charges =  -0.00000

 Dipole moment (field-independent basis, Debye):
    X=              1.9995    Y=              0.5904    Z=             -2.3183  Tot=              3.1179
 Quadrupole moment (field-independent basis, Debye-Ang):
   XX=            -66.8338   YY=            -77.4362   ZZ=            -69.0443
   XY=              1.6112   XZ=             -5.3321   YZ=              4.8055

  Exact polarizability:     104.335      -1.000      92.916       0.645       1.841      87.049
 Approx polarizability:     105.035      -1.765     102.105       0.065       1.187     102.262

                      1                      2                      3
                      A                      A                      A
 Frequencies --     52.0655                71.7006                92.5331
 Red. masses --      5.8986                 5.0214                 2.9913
 Frc consts  --      0.0094                 0.0152                 0.0151
 IR Inten    --      0.8108                 1.5463                 5.7322

                      4                      5                      6
                      A                      A                      A
 Frequencies --    116.4351               156.5946               170.6237
 Red. masses --      6.1793                 5.3261                 5.2869
 Frc consts  --      0.0494                 0.0770                 0.0907
 IR Inten    --      4.9228                 9.7921                 6.1301

                      7                      8                      9
                      A                      A                      A
 Frequencies --    185.9449               234.9591               250.5367
 Red. masses --      4.0887                 4.0648                 1.1284
 Frc consts  --      0.0833                 0.1322                 0.0417
 IR Inten    --      7.1899                 2.4251                95.7022

                     10                     11                     12
                      A                      A                      A
 Frequencies --    276.2283               284.7782               315.9337
 Red. masses --      3.9226                 2.9452                 3.4599
 Frc consts  --      0.1763                 0.1407                 0.2035
 IR Inten    --      9.2532                19.8616                17.0641

                     13                     14                     15
                      A                      A                      A
 Frequencies --    340.0764               359.8509               413.5830
 Red. masses --      3.4575                 3.3602                 1.7127
 Frc consts  --      0.2356                 0.2564                 0.1726
 IR Inten    --      3.6662                26.2911                26.6794

                     16                     17                     18
                      A                      A                      A
 Frequencies --    449.8075               460.4672               466.6803
 Red. masses --      1.3546                 1.3711                 1.6882
 Frc consts  --      0.1615                 0.1713                 0.2166
 IR Inten    --    196.4859                95.7617                45.8661

                     19                     20                     21
                      A                      A                      A
 Frequencies --    492.3380               510.9277               539.6833
 Red. masses --      2.2504                 1.2020                 1.3824
 Frc consts  --      0.3214                 0.1849                 0.2372
 IR Inten    --     18.8684                24.1833                89.4816

                     22                     23                     24
                      A                      A                      A
 Frequencies --    563.9775               610.6578               717.7769
 Red. masses --      2.6796                 3.5556                 3.9478
 Frc consts  --      0.5022                 0.7812                 1.1984
 IR Inten    --     54.7324                38.3922                41.2109

                     25                     26                     27
                      A                      A                      A
 Frequencies --    765.3203               857.2382               875.8201
 Red. masses --      4.2081                 3.0494                 2.6927
 Frc consts  --      1.4522                 1.3203                 1.2169
 IR Inten    --      9.4760                10.4347                27.7718

                     28                     29                     30
                      A                      A                      A
 Frequencies --    952.9963               963.0288              1008.4339
 Red. masses --      2.0694                 2.4244                 2.1256
 Frc consts  --      1.1074                 1.3247                 1.2736
 IR Inten    --      7.6589                44.1081                22.4030

                     31                     32                     33
                      A                      A                      A
 Frequencies --   1056.8262              1094.2613              1101.4769
 Red. masses --      2.8905                 5.2363                 2.6588
 Frc consts  --      1.9021                 3.6942                 1.9006
 IR Inten    --      2.6574                97.6973                26.6675

                     34                     35                     36
                      A                      A                      A
 Frequencies --   1113.8847              1116.6098              1128.7653
 Red. masses --      3.8165                 2.5542                 2.7892
 Frc consts  --      2.7900                 1.8763                 2.0938
 IR Inten    --    173.7935                98.1200                47.8693

                     37                     38                     39
                      A                      A                      A
 Frequencies --   1151.6616              1164.6337              1212.3020
 Red. masses --      3.0520                 2.9627                 1.1475
 Frc consts  --      2.3850                 2.3676                 0.9936
 IR Inten    --      1.4042                61.9829                32.9703

                     40                     41                     42
                      A                      A                      A
 Frequencies --   1226.9547              1262.0675              1269.5827
 Red. masses --      1.2007                 1.2542                 1.1558
 Frc consts  --      1.0650                 1.1770                 1.0976
 IR Inten    --     45.1226                26.5921                30.0348

                     43                     44                     45
                      A                      A                      A
 Frequencies --   1287.4947              1293.1653              1314.7741
 Red. masses --      1.1222                 1.1266                 1.1768
 Frc consts  --      1.0960                 1.1100                 1.1986
 IR Inten    --     39.6127                14.0759                30.4776

                     46                     47                     48
                      A                      A                      A
 Frequencies --   1354.8239              1372.6629              1380.8279
 Red. masses --      1.1953                 1.2490                 1.2676
 Frc consts  --      1.2927                 1.3866                 1.4240
 IR Inten    --     23.1150                31.9277                 9.5456

                     49                     50                     51
                      A                      A                      A
 Frequencies --   1398.8867              1405.3275              1413.8379
 Red. masses --      1.2842                 1.3552                 1.2886
 Frc consts  --      1.4807                 1.5769                 1.5177
 IR Inten    --     19.5945                25.5029                48.2235

                     52                     53                     54
                      A                      A                      A
 Frequencies --   1431.7617              1442.5830              1460.1726
 Red. masses --      1.3531                 1.3586                 1.7759
 Frc consts  --      1.6343                 1.6658                 2.2309
 IR Inten    --     20.3549                62.1257                24.6719

                     55                     56                     57
                      A                      A                      A
 Frequencies --   1469.0053              1470.5751              1517.8054
 Red. masses --      1.6581                 1.5959                 1.0858
 Frc consts  --      2.1082                 2.0335                 1.4737
 IR Inten    --     12.3414                27.4634                 4.4071

                     58                     59                     60
                      A                      A                      A
 Frequencies --   1526.3332              3004.8981              3021.2101
 Red. masses --      1.0903                 1.0813                 1.0755
 Frc consts  --      1.4965                 5.7523                 5.7840
 IR Inten    --      6.8844                18.0392                24.9108

                     61                     62                     63
                      A                      A                      A
 Frequencies --   3030.7135              3035.7762              3053.6004
 Red. masses --      1.0610                 1.0714                 1.0847
 Frc consts  --      5.7418                 5.8177                 5.9589
 IR Inten    --     12.9818               100.6505                41.3722

                     64                     65                     66
                      A                      A                      A
 Frequencies --   3076.2285              3092.9357              3112.2222
 Red. masses --      1.1055                 1.0980                 1.0869
 Frc consts  --      6.1639                 6.1886                 6.2025
 IR Inten    --     29.8998                31.0928                 9.3841

                     67                     68                     69
                      A                      A                      A
 Frequencies --   3835.6488              3850.8890              3854.9288
 Red. masses --      1.0654                 1.0648                 1.0653
 Frc consts  --      9.2347                 9.3036                 9.3274
 IR Inten    --    151.2669                87.8850                77.3543

                     70                     71                     72
                      A                      A                      A
 Frequencies --   3855.8543              3868.1783              3946.2817
 Red. masses --      1.0653                 1.0656                 1.0669
 Frc consts  --      9.3315                 9.3937                 9.7890
 IR Inten    --     39.9100                65.1221                59.4411

 - Thermochemistry -
 -------------------
 Temperature   298.150 Kelvin.  Pressure   1.00000 Atm.
 Atom     1 has atomic number  6 and mass  12.00000

 Molecular mass:   182.07904 amu.
 Principal axes and moments of inertia in atomic units:
                           1         2         3
     Eigenvalues --  1496.725932750.194643422.57184
           X            0.99994   0.01018  -0.00445
           Y           -0.01009   0.99974   0.02027
           Z            0.00466  -0.02022   0.99978
 This molecule is an asymmetric top.
 Rotational symmetry number  1.
 Warning -- assumption of classical behavior for rotation
           may cause significant error
 Rotational temperatures (Kelvin)      0.05787     0.03149     0.02531
 Rotational constants (GHZ):           1.20579     0.65622     0.52731
 Zero-point vibrational energy     583989.5 (Joules/Mol)
                                  139.57685 (Kcal/Mol)
 Warning -- explicit consideration of  23 degrees of freedom as
           vibrations may cause significant error
 Vibrational temperatures:     74.91   103.16   133.13   167.52   225.30
          (Kelvin)            245.49   267.53   338.05   360.47   397.43
                              409.73   454.56   489.29   517.75   595.05
                              647.17   662.51   671.45   708.36   735.11
                              776.48   811.44   878.60  1032.72  1101.13
                             1233.37  1260.11  1371.15  1385.58  1450.91
                             1520.54  1574.40  1584.78  1602.63  1606.55
                             1624.04  1656.98  1675.65  1744.23  1765.31
                             1815.83  1826.65  1852.42  1860.58  1891.67
                             1949.29  1974.96  1986.70  2012.69  2021.95
                             2034.20  2059.99  2075.56  2100.86  2113.57
                             2115.83  2183.78  2196.05  4323.38  4346.85
                             4360.52  4367.80  4393.45  4426.01  4450.04
                             4477.79  5518.64  5540.57  5546.38  5547.71
                             5565.45  5677.82

 Zero-point correction=                           0.222430 (Hartree/Particle)
 Thermal correction to Energy=                    0.236014
 Thermal correction to Enthalpy=                  0.236958
 Thermal correction to Gibbs Free Energy=         0.182881
 Sum of electronic and zero-point Energies=           -688.256260
 Sum of electronic and thermal Energies=              -688.242676
 Sum of electronic and thermal Enthalpies=            -688.241731
 Sum of electronic and thermal Free Energies=         -688.295808

                     E (Thermal)             CV                S
                      KCal/Mol        Cal/Mol-Kelvin    Cal/Mol-Kelvin
 Total                  148.101             50.794            113.815
 Electronic               0.000              0.000              0.000
 Translational            0.889              2.981             41.504
 Rotational               0.889              2.981             31.022
 Vibrational            146.323             44.832             41.288
 Vibration     1          0.596              1.977              4.737
 Vibration     2          0.598              1.967              4.106
 Vibration     3          0.602              1.955              3.606
 Vibration     4          0.608              1.936              3.159
 Vibration     5          0.620              1.895              2.591
 Vibration     6          0.626              1.879              2.429
 Vibration     7          0.632              1.859              2.268
 Vibration     8          0.655              1.787              1.841
 Vibration     9          0.663              1.762              1.727
 Vibration    10          0.678              1.717              1.557
 Vibration    11          0.683              1.702              1.505
 Vibration    12          0.703              1.643              1.331
 Vibration    13          0.720              1.595              1.212
 Vibration    14          0.734              1.555              1.123
 Vibration    15          0.777              1.441              0.914
 Vibration    16          0.809              1.361              0.796
 Vibration    17          0.818              1.338              0.765
 Vibration    18          0.824              1.324              0.747
 Vibration    19          0.848              1.267              0.678
 Vibration    20          0.866              1.226              0.631
 Vibration    21          0.895              1.162              0.566
 Vibration    22          0.920              1.109              0.516
 Vibration    23          0.970              1.009              0.432

 Optimization completed.
    -- Stationary point found.
 Normal termination of Gaussian 16 at Wed Oct 11 18:03:12 2023.
