 Gaussian 16, Revision C.01,
 Gaussian 16:  ES64L-G16RevC.01  3-Jul-2019

 ---------------------------------------------
 # opt freq wb97xd/def2tzvpp geom=connectivity
 ---------------------------------------------

 --------------------------------
 Mannitol Conformer Optimziations
 --------------------------------
 Symbolic Z-matrix:
 Charge =  0 Multiplicity = 1

 SCF Done:  E(RwB97XD) =  -688.471631156     A.U. after   13 cycles
 SCF Done:  E(RwB97XD) =  -688.480361068     A.U. after   11 cycles
 SCF Done:  E(RwB97XD) =  -688.480559611     A.U. after   11 cycles
 SCF Done:  E(RwB97XD) =  -688.480691417     A.U. after   12 cycles
 SCF Done:  E(RwB97XD) =  -688.481454446     A.U. after   11 cycles
 SCF Done:  E(RwB97XD) =  -688.481635628     A.U. after   11 cycles
 SCF Done:  E(RwB97XD) =  -688.481575410     A.U. after   11 cycles
 SCF Done:  E(RwB97XD) =  -688.481704655     A.U. after   10 cycles
 SCF Done:  E(RwB97XD) =  -688.481720870     A.U. after   10 cycles
 SCF Done:  E(RwB97XD) =  -688.481727799     A.U. after   10 cycles
 SCF Done:  E(RwB97XD) =  -688.481730459     A.U. after    8 cycles
 SCF Done:  E(RwB97XD) =  -688.481731470     A.U. after    8 cycles
 SCF Done:  E(RwB97XD) =  -688.481731946     A.U. after    7 cycles
 SCF Done:  E(RwB97XD) =  -688.481732106     A.U. after    7 cycles
 Optimization completed.
    -- Stationary point found.
 Normal termination of Gaussian 16 at Wed Sep 27 11:42:02 2023.

 ----------------------------------------------------------------------
 #N Geom=AllCheck Guess=TCheck SCRF=Check GenChk RwB97XD/def2TZVPP Freq
 ----------------------------------------------------------------------

 Structure from the checkpoint file:  "MannitolConformerOpt_4.chk"
 --------------------------------
 Mannitol Conformer Optimziations
 --------------------------------
 Charge =  0 Multiplicity = 1

                         Standard orientation:
 ---------------------------------------------------------------------
 Center     Atomic      Atomic             Coordinates (Angstroms)
 Number     Number       Type             X           Y           Z
 ---------------------------------------------------------------------
      1          6           0       -0.512390    0.636529   -0.638212
      2          6           0        0.316498   -0.531832   -0.110830
      3          6           0       -1.995864    0.534306   -0.253919
      4          6           0        1.795992   -0.528363   -0.489714
      5          1           0       -0.089911   -1.446275   -0.561538
      6          1           0       -0.439777    0.615751   -1.729233
      7          6           0       -2.667764   -0.786580   -0.592755
      8          1           0       -2.523548    1.327329   -0.786859
      9          6           0        2.600352    0.677199   -0.028024
     10          1           0        1.873094   -0.605904   -1.581303
     11          1           0       -2.532551   -1.020015   -1.650657
     12          1           0       -2.213286   -1.595340   -0.006310
     13          1           0        2.395601    0.876933    1.027087
     14          1           0        2.330095    1.557343   -0.609268
     15          8           0       -4.052725   -0.720744   -0.357156
     16          1           0       -4.170941   -0.335542    0.513446
     17          8           0       -2.173624    0.834428    1.124733
     18          1           0       -1.600081    0.234823    1.617216
     19          8           0       -0.024573    1.889565   -0.217018
     20          1           0       -0.448969    2.081227    0.623794
     21          8           0        0.168804   -0.603010    1.297917
     22          1           0        0.805328   -1.254330    1.605097
     23          8           0        2.316652   -1.702467    0.112088
     24          1           0        3.270522   -1.591587    0.146746
     25          8           0        3.965423    0.322574   -0.223600
     26          1           0        4.523818    0.985271    0.176795
 ---------------------------------------------------------------------

 SCF Done:  E(RwB97XD) =  -688.481732106     A.U. after    1 cycles

 The electronic state is 1-A.
 Alpha  occ. eigenvalues --  -19.26983 -19.26852 -19.26037 -19.25834 -19.25430
 Alpha  occ. eigenvalues --  -19.24529 -10.34903 -10.34856 -10.34671 -10.34079
 Alpha  occ. eigenvalues --  -10.33518 -10.33126  -1.17091  -1.15658  -1.14234
 Alpha  occ. eigenvalues --   -1.13117  -1.12247  -1.11515  -0.89629  -0.85907
 Alpha  occ. eigenvalues --   -0.80651  -0.75852  -0.72492  -0.69006  -0.64527
 Alpha  occ. eigenvalues --   -0.62399  -0.61800  -0.61132  -0.60212  -0.57917
 Alpha  occ. eigenvalues --   -0.57622  -0.54565  -0.53756  -0.52900  -0.51681
 Alpha  occ. eigenvalues --   -0.50760  -0.48866  -0.47989  -0.45931  -0.45140
 Alpha  occ. eigenvalues --   -0.44284  -0.42548  -0.41618  -0.39180  -0.38530
 Alpha  occ. eigenvalues --   -0.37735  -0.37629  -0.36952  -0.35071
 Alpha virt. eigenvalues --    0.09150   0.10307   0.11729   0.13311   0.14119
 Alpha virt. eigenvalues --    0.15028   0.15254   0.16963   0.18234   0.18837
 Alpha virt. eigenvalues --    0.19478   0.20147   0.20758   0.21393   0.22203

 Mulliken charges:
               1
     1  C    0.126576
     2  C    0.094659
     3  C    0.134250
     4  C    0.117911
     5  H    0.090483
     6  H    0.078304
     7  C    0.019236
     8  H    0.093638
     9  C   -0.013627
    10  H    0.062133
    11  H    0.064358
    12  H    0.071632
    13  H    0.083953
    14  H    0.094274
    15  O   -0.346857
    16  H    0.182999
    17  O   -0.411293
    18  H    0.210424
    19  O   -0.375395
    20  H    0.191052
    21  O   -0.386065
    22  H    0.180923
    23  O   -0.388410
    24  H    0.199960
    25  O   -0.348098
    26  H    0.172982
 Sum of Mulliken charges =  -0.00000

 Dipole moment (field-independent basis, Debye):
    X=              3.1005    Y=              0.3929    Z=              0.7881  Tot=              3.2231
 Quadrupole moment (field-independent basis, Debye-Ang):
   XX=            -75.9404   YY=            -75.5019   ZZ=            -69.0473
   XY=              3.1938   XZ=              1.9051   YZ=             -0.2220

  Exact polarizability:     112.905       0.769      88.418       0.508       1.161      85.024
 Approx polarizability:     105.546      -1.115     100.447      -0.108       1.342     103.221

                      1                      2                      3
                      A                      A                      A
 Frequencies --     42.3699                84.2044               110.6457
 Red. masses --      5.7754                 4.2696                 5.5135
 Frc consts  --      0.0061                 0.0178                 0.0398
 IR Inten    --      0.6500                 4.0119                 2.6490

                      4                      5                      6
                      A                      A                      A
 Frequencies --    117.6971               127.7801               166.3198
 Red. masses --      3.5523                 3.3822                 5.2025
 Frc consts  --      0.0290                 0.0325                 0.0848
 IR Inten    --     12.8576                 0.4426                 5.4933

                      7                      8                      9
                      A                      A                      A
 Frequencies --    201.9034               235.0261               243.2188
 Red. masses --      4.1988                 4.6066                 1.1493
 Frc consts  --      0.1008                 0.1499                 0.0401
 IR Inten    --      2.8834                 9.8862               102.9107

                     10                     11                     12
                      A                      A                      A
 Frequencies --    281.6523               284.0864               297.6634
 Red. masses --      4.1920                 5.7252                 3.4310
 Frc consts  --      0.1959                 0.2722                 0.1791
 IR Inten    --      7.4480                 0.2517                11.0865

                     13                     14                     15
                      A                      A                      A
 Frequencies --    329.9962               350.0770               403.6867
 Red. masses --      3.9755                 4.8925                 1.6386
 Frc consts  --      0.2551                 0.3533                 0.1573
 IR Inten    --      9.8217                 7.3933                10.4717

                     16                     17                     18
                      A                      A                      A
 Frequencies --    411.8923               446.9050               486.6349
 Red. masses --      1.7986                 1.4049                 1.0953
 Frc consts  --      0.1798                 0.1653                 0.1528
 IR Inten    --     20.0312               126.8177                71.8474

                     19                     20                     21
                      A                      A                      A
 Frequencies --    498.2010               516.8364               548.2070
 Red. masses --      2.3180                 1.4404                 2.3168
 Frc consts  --      0.3390                 0.2267                 0.4102
 IR Inten    --     24.2967                76.2349                52.9676

                     22                     23                     24
                      A                      A                      A
 Frequencies --    614.8186               666.0473               758.0366
 Red. masses --      2.4721                 1.2653                 4.4780
 Frc consts  --      0.5506                 0.3307                 1.5161
 IR Inten    --     16.9032               223.2543                10.6684

                     25                     26                     27
                      A                      A                      A
 Frequencies --    798.4696               840.1777               882.6591
 Red. masses --      3.5341                 3.8453                 2.6046
 Frc consts  --      1.3275                 1.5993                 1.1956
 IR Inten    --     15.5183                30.3161                15.5771

                     28                     29                     30
                      A                      A                      A
 Frequencies --    905.2441               972.9292              1020.0962
 Red. masses --      2.3156                 2.1663                 1.9086
 Frc consts  --      1.1180                 1.2082                 1.1702
 IR Inten    --     36.9784                 4.9341                11.4754

                     31                     32                     33
                      A                      A                      A
 Frequencies --   1074.8481              1086.3166              1096.6439
 Red. masses --      3.9708                 4.9156                 2.9904
 Frc consts  --      2.7028                 3.4178                 2.1189
 IR Inten    --     33.9049               133.3792               111.7246

                     34                     35                     36
                      A                      A                      A
 Frequencies --   1112.2022              1124.6704              1135.9121
 Red. masses --      2.2319                 2.6514                 2.8702
 Frc consts  --      1.6266                 1.9759                 2.1820
 IR Inten    --     22.5901                27.3653                69.9627

                     37                     38                     39
                      A                      A                      A
 Frequencies --   1152.0270              1164.4452              1225.1238
 Red. masses --      3.3015                 2.7821                 1.1733
 Frc consts  --      2.5816                 2.2226                 1.0376
 IR Inten    --     11.1332               132.9131                76.2796

                     40                     41                     42
                      A                      A                      A
 Frequencies --   1230.8186              1255.4005              1259.4683
 Red. masses --      1.1669                 1.1868                 1.2236
 Frc consts  --      1.0416                 1.1020                 1.1436
 IR Inten    --     29.4483                58.2713                10.0000

                     43                     44                     45
                      A                      A                      A
 Frequencies --   1284.0861              1299.4609              1324.6961
 Red. masses --      1.1584                 1.1569                 1.3568
 Frc consts  --      1.1253                 1.1510                 1.4028
 IR Inten    --     23.1694                34.9366                 2.0892

                     46                     47                     48
                      A                      A                      A
 Frequencies --   1335.0672              1367.6419              1389.9171
 Red. masses --      1.4185                 1.2322                 1.2938
 Frc consts  --      1.4897                 1.3580                 1.4726
 IR Inten    --      1.2365                17.6598                15.3723

                     49                     50                     51
                      A                      A                      A
 Frequencies --   1401.7057              1409.3733              1423.7133
 Red. masses --      1.2138                 1.4155                 1.3146
 Frc consts  --      1.4051                 1.6566                 1.5699
 IR Inten    --     36.7496                 8.1367                24.1756

                     52                     53                     54
                      A                      A                      A
 Frequencies --   1434.7701              1449.0921              1459.2016
 Red. masses --      1.2386                 1.3935                 1.7464
 Frc consts  --      1.5023                 1.7240                 2.1909
 IR Inten    --     39.7775                39.4536                 4.7725

                     55                     56                     57
                      A                      A                      A
 Frequencies --   1474.2610              1477.8683              1513.2341
 Red. masses --      1.2518                 1.5968                 1.0918
 Frc consts  --      1.6029                 2.0549                 1.4730
 IR Inten    --     76.9433                16.8136                 1.8330

                     58                     59                     60
                      A                      A                      A
 Frequencies --   1520.8770              3006.6679              3014.8896
 Red. masses --      1.0908                 1.0737                 1.0770
 Frc consts  --      1.4865                 5.7187                 5.7680
 IR Inten    --      6.7397                30.3586                31.8342

                     61                     62                     63
                      A                      A                      A
 Frequencies --   3024.9418              3057.4145              3067.9656
 Red. masses --      1.0834                 1.0640                 1.0854
 Frc consts  --      5.8410                 5.8600                 6.0192
 IR Inten    --     37.8996                24.2117                26.4949

                     64                     65                     66
                      A                      A                      A
 Frequencies --   3086.8438              3100.9890              3135.2641
 Red. masses --      1.0864                 1.0954                 1.1013
 Frc consts  --      6.0991                 6.2064                 6.3783
 IR Inten    --     14.3192                39.6197                18.2170

                     67                     68                     69
                      A                      A                      A
 Frequencies --   3787.7446              3841.7486              3845.9156
 Red. masses --      1.0652                 1.0654                 1.0653
 Frc consts  --      9.0045                 9.2642                 9.2837
 IR Inten    --    144.5779                86.8300               127.4202

                     70                     71                     72
                      A                      A                      A
 Frequencies --   3849.9278              3876.6441              3949.0339
 Red. masses --      1.0653                 1.0656                 1.0668
 Frc consts  --      9.3033                 9.4356                 9.8024
 IR Inten    --     27.8184                45.4025                59.7718

 - Thermochemistry -
 -------------------
 Temperature   298.150 Kelvin.  Pressure   1.00000 Atm.
 Atom     1 has atomic number  6 and mass  12.00000

 Molecular mass:   182.07904 amu.
 Principal axes and moments of inertia in atomic units:
                           1         2         3
     Eigenvalues --   928.159573925.313544278.76708
           X            0.99997   0.00653   0.00281
           Y           -0.00655   0.99995   0.00757
           Z           -0.00276  -0.00758   0.99997
 This molecule is an asymmetric top.
 Rotational symmetry number  1.
 Warning -- assumption of classical behavior for rotation
           may cause significant error
 Rotational temperatures (Kelvin)      0.09332     0.02207     0.02024
 Rotational constants (GHZ):           1.94443     0.45977     0.42179
 Zero-point vibrational energy     584808.3 (Joules/Mol)
                                  139.77254 (Kcal/Mol)
 Warning -- explicit consideration of  22 degrees of freedom as
           vibrations may cause significant error
 Vibrational temperatures:     60.96   121.15   159.19   169.34   183.85
          (Kelvin)            239.30   290.49   338.15   349.94   405.23
                              408.74   428.27   474.79   503.68   580.82
                              592.62   643.00   700.16   716.80   743.61
                              788.75   884.59   958.29  1090.65  1148.82
                             1208.83  1269.95  1302.44  1399.83  1467.69
                             1546.47  1562.97  1577.83  1600.21  1618.15
                             1634.32  1657.51  1675.38  1762.68  1770.87
                             1806.24  1812.09  1847.51  1869.63  1905.94
                             1920.86  1967.73  1999.78  2016.74  2027.77
                             2048.41  2064.31  2084.92  2099.47  2121.13
                             2126.32  2177.21  2188.20  4325.92  4337.75
                             4352.22  4398.94  4414.12  4441.28  4461.63
                             4510.95  5449.72  5527.42  5533.41  5539.19
                             5577.63  5681.78

 Zero-point correction=                           0.222742 (Hartree/Particle)
 Thermal correction to Energy=                    0.236316
 Thermal correction to Enthalpy=                  0.237260
 Thermal correction to Gibbs Free Energy=         0.183092
 Sum of electronic and zero-point Energies=           -688.258990
 Sum of electronic and thermal Energies=              -688.245416
 Sum of electronic and thermal Enthalpies=            -688.244472
 Sum of electronic and thermal Free Energies=         -688.298640

                     E (Thermal)             CV                S
                      KCal/Mol        Cal/Mol-Kelvin    Cal/Mol-Kelvin
 Total                  148.290             50.588            114.005
 Electronic               0.000              0.000              0.000
 Translational            0.889              2.981             41.504
 Rotational               0.889              2.981             31.123
 Vibrational            146.513             44.626             41.378
 Vibration     1          0.595              1.980              5.145
 Vibration     2          0.601              1.960              3.790
 Vibration     3          0.606              1.941              3.258
 Vibration     4          0.608              1.935              3.138
 Vibration     5          0.611              1.925              2.979
 Vibration     6          0.624              1.884              2.477
 Vibration     7          0.639              1.837              2.116
 Vibration     8          0.655              1.787              1.840
 Vibration     9          0.659              1.774              1.779
 Vibration    10          0.681              1.708              1.524
 Vibration    11          0.682              1.703              1.509
 Vibration    12          0.691              1.678              1.430
 Vibration    13          0.713              1.616              1.260
 Vibration    14          0.727              1.575              1.166
 Vibration    15          0.769              1.462              0.949
 Vibration    16          0.776              1.444              0.920
 Vibration    17          0.806              1.368              0.805
 Vibration    18          0.843              1.280              0.692
 Vibration    19          0.854              1.254              0.663
 Vibration    20          0.872              1.213              0.617
 Vibration    21          0.903              1.144              0.548
 Vibration    22          0.974              1.001              0.425

 Optimization completed.
    -- Stationary point found.
 Normal termination of Gaussian 16 at Wed Sep 27 12:20:36 2023.
