 Gaussian 16, Revision C.01,
 Gaussian 16:  ES64L-G16RevC.01  3-Jul-2019

 ---------------------------------------------
 # opt freq wb97xd/Def2TZVPP geom=connectivity
 ---------------------------------------------

 -------------------
 Title Card Required
 -------------------
 Symbolic Z-matrix:
 Charge =  0 Multiplicity = 1

 SCF Done:  E(RwB97XD) =  -688.471555208     A.U. after   14 cycles
 SCF Done:  E(RwB97XD) =  -688.478415987     A.U. after   12 cycles
 SCF Done:  E(RwB97XD) =  -688.477649523     A.U. after   12 cycles
 SCF Done:  E(RwB97XD) =  -688.479380622     A.U. after   11 cycles
 SCF Done:  E(RwB97XD) =  -688.479774102     A.U. after   11 cycles
 SCF Done:  E(RwB97XD) =  -688.479917162     A.U. after   11 cycles
 SCF Done:  E(RwB97XD) =  -688.479961624     A.U. after   10 cycles
 SCF Done:  E(RwB97XD) =  -688.479970579     A.U. after   10 cycles
 SCF Done:  E(RwB97XD) =  -688.479981765     A.U. after    8 cycles
 SCF Done:  E(RwB97XD) =  -688.479993805     A.U. after   10 cycles
 SCF Done:  E(RwB97XD) =  -688.480003655     A.U. after   10 cycles
 SCF Done:  E(RwB97XD) =  -688.480009660     A.U. after    9 cycles
 SCF Done:  E(RwB97XD) =  -688.480009749     A.U. after    8 cycles
 SCF Done:  E(RwB97XD) =  -688.480010006     A.U. after    8 cycles
 Optimization completed.
    -- Stationary point found.
 Normal termination of Gaussian 16 at Wed Oct 11 14:46:42 2023.

 ----------------------------------------------------------------------
 #N Geom=AllCheck Guess=TCheck SCRF=Check GenChk RwB97XD/def2TZVPP Freq
 ----------------------------------------------------------------------

 Structure from the checkpoint file:  "MannitolConformerOpt_33.chk"
 -------------------
 Title Card Required
 -------------------
 Charge =  0 Multiplicity = 1

                         Standard orientation:
 ---------------------------------------------------------------------
 Center     Atomic      Atomic             Coordinates (Angstroms)
 Number     Number       Type             X           Y           Z
 ---------------------------------------------------------------------
      1          6           0       -0.764608    0.764490   -0.496783
      2          6           0        0.635297    0.665918    0.119724
      3          6           0       -1.553427   -0.534089   -0.685815
      4          6           0        1.636488   -0.107356   -0.744748
      5          1           0        0.571739    0.178925    1.101697
      6          1           0       -0.658270    1.237203   -1.476969
      7          6           0       -1.722328   -1.353206    0.587606
      8          1           0       -1.035373   -1.154762   -1.415173
      9          6           0        3.055920    0.012068   -0.216767
     10          1           0        1.611816    0.311700   -1.753992
     11          1           0       -0.754235   -1.621639    1.004800
     12          1           0       -2.253952   -2.276279    0.343600
     13          1           0        3.303878    1.060001   -0.045941
     14          1           0        3.740418   -0.412562   -0.957610
     15          8           0       -2.420906   -0.633552    1.599016
     16          1           0       -3.335082   -0.570377    1.319252
     17          8           0       -2.834814   -0.220673   -1.210098
     18          1           0       -3.037203    0.678543   -0.941280
     19          8           0       -1.533860    1.688547    0.275402
     20          1           0       -1.814262    1.214682    1.069337
     21          8           0        1.137836    1.976885    0.266192
     22          1           0        0.395886    2.522618    0.539530
     23          8           0        1.283738   -1.471983   -0.845007
     24          1           0        1.684386   -1.911355   -0.090201
     25          8           0        3.100954   -0.739121    0.988810
     26          1           0        3.992612   -0.744484    1.329136
 ---------------------------------------------------------------------

 SCF Done:  E(RwB97XD) =  -688.480010006     A.U. after    1 cycles

 The electronic state is 1-A.
 Alpha  occ. eigenvalues --  -19.26785 -19.26662 -19.26193 -19.25392 -19.24923
 Alpha  occ. eigenvalues --  -19.24702 -10.34151 -10.34116 -10.33573 -10.33474
 Alpha  occ. eigenvalues --  -10.33411 -10.33255  -1.16441  -1.15506  -1.14083
 Alpha  occ. eigenvalues --   -1.12635  -1.12388  -1.11269  -0.88511  -0.85558
 Alpha  occ. eigenvalues --   -0.80741  -0.75353  -0.71183  -0.69522  -0.63703
 Alpha  occ. eigenvalues --   -0.63065  -0.62307  -0.60096  -0.58983  -0.57422
 Alpha  occ. eigenvalues --   -0.56791  -0.55607  -0.53855  -0.52107  -0.50658
 Alpha  occ. eigenvalues --   -0.49640  -0.48826  -0.47243  -0.45862  -0.45017
 Alpha  occ. eigenvalues --   -0.43773  -0.42223  -0.41648  -0.40229  -0.38880
 Alpha  occ. eigenvalues --   -0.37951  -0.36515  -0.35556  -0.35010
 Alpha virt. eigenvalues --    0.09506   0.09629   0.12677   0.13394   0.14539
 Alpha virt. eigenvalues --    0.15726   0.16247   0.16887   0.18054   0.19206
 Alpha virt. eigenvalues --    0.19437   0.20333   0.20956   0.21475   0.22407

 Mulliken charges:
               1
     1  C    0.139781
     2  C    0.029279
     3  C    0.145073
     4  C    0.207228
     5  H    0.077995
     6  H    0.099514
     7  C    0.010595
     8  H    0.070158
     9  C   -0.065088
    10  H    0.070222
    11  H    0.069655
    12  H    0.094633
    13  H    0.104790
    14  H    0.099101
    15  O   -0.356618
    16  H    0.171902
    17  O   -0.380944
    18  H    0.189018
    19  O   -0.426372
    20  H    0.202961
    21  O   -0.362868
    22  H    0.186010
    23  O   -0.386793
    24  H    0.188950
    25  O   -0.340774
    26  H    0.162591
 Sum of Mulliken charges =  -0.00000

 Dipole moment (field-independent basis, Debye):
    X=              1.6454    Y=             -0.4489    Z=              0.9278  Tot=              1.9416
 Quadrupole moment (field-independent basis, Debye-Ang):
   XX=            -58.9713   YY=            -74.1998   ZZ=            -76.0314
   XY=             -2.8919   XZ=             -1.7043   YZ=             -2.2927

  Exact polarizability:     107.768       0.391      92.347      -0.266      -0.863      85.032
 Approx polarizability:     104.942      -1.017     104.191       0.145      -0.490     100.176

                      1                      2                      3
                      A                      A                      A
 Frequencies --     41.9929                72.1045                98.7545
 Red. masses --      5.2792                 5.1857                 5.2115
 Frc consts  --      0.0055                 0.0159                 0.0299
 IR Inten    --      2.2151                 0.2674                 5.5090

                      4                      5                      6
                      A                      A                      A
 Frequencies --    115.1211               156.1350               169.3535
 Red. masses --      5.4950                 5.7322                 4.8164
 Frc consts  --      0.0429                 0.0823                 0.0814
 IR Inten    --      1.4871                 4.1222                22.2500

                      7                      8                      9
                      A                      A                      A
 Frequencies --    210.0792               234.4340               255.9450
 Red. masses --      1.1888                 3.8549                 4.2503
 Frc consts  --      0.0309                 0.1248                 0.1640
 IR Inten    --     99.6274                 9.3732                 2.5149

                     10                     11                     12
                      A                      A                      A
 Frequencies --    281.2314               313.6873               323.0980
 Red. masses --      4.5854                 2.7258                 3.0346
 Frc consts  --      0.2137                 0.1580                 0.1866
 IR Inten    --      6.8576                18.0676                28.3700

                     13                     14                     15
                      A                      A                      A
 Frequencies --    357.4075               367.8289               388.3479
 Red. masses --      4.4988                 2.9196                 1.7146
 Frc consts  --      0.3386                 0.2327                 0.1524
 IR Inten    --      7.1269                24.3308               135.7324

                     16                     17                     18
                      A                      A                      A
 Frequencies --    433.1737               445.4574               476.0287
 Red. masses --      1.4753                 1.7608                 1.0951
 Frc consts  --      0.1631                 0.2059                 0.1462
 IR Inten    --     10.1776                37.7379               119.6950

                     19                     20                     21
                      A                      A                      A
 Frequencies --    504.3264               523.4710               540.5476
 Red. masses --      1.3053                 3.4600                 2.9214
 Frc consts  --      0.1956                 0.5586                 0.5029
 IR Inten    --     84.8058                10.3787                19.2477

                     22                     23                     24
                      A                      A                      A
 Frequencies --    564.6154               693.6320               729.1525
 Red. masses --      3.5452                 3.4191                 1.1173
 Frc consts  --      0.6659                 0.9692                 0.3500
 IR Inten    --     20.8900                26.6811               100.0069

                     25                     26                     27
                      A                      A                      A
 Frequencies --    811.5105               845.5438               901.2859
 Red. masses --      3.9412                 2.9738                 3.2054
 Frc consts  --      1.5292                 1.2527                 1.5341
 IR Inten    --     14.2209                24.5754                27.8969

                     28                     29                     30
                      A                      A                      A
 Frequencies --    959.6083               970.6890               984.2957
 Red. masses --      2.2809                 1.8152                 2.3800
 Frc consts  --      1.2375                 1.0077                 1.3586
 IR Inten    --      6.1848                11.6449                13.1999

                     31                     32                     33
                      A                      A                      A
 Frequencies --   1055.5730              1072.9927              1096.8161
 Red. masses --      3.6599                 3.3752                 4.4574
 Frc consts  --      2.4027                 2.2895                 3.1594
 IR Inten    --    123.4464                 3.3406                87.7510

                     34                     35                     36
                      A                      A                      A
 Frequencies --   1106.7754              1128.6699              1135.9982
 Red. masses --      2.4175                 3.6264                 2.7023
 Frc consts  --      1.7448                 2.7218                 2.0547
 IR Inten    --     61.7843               130.0415                41.0147

                     37                     38                     39
                      A                      A                      A
 Frequencies --   1143.9411              1166.5462              1201.4397
 Red. masses --      2.8540                 1.9549                 1.2184
 Frc consts  --      2.2005                 1.5674                 1.0362
 IR Inten    --     93.2539                 4.8494                29.7287

                     40                     41                     42
                      A                      A                      A
 Frequencies --   1224.1191              1233.7751              1281.1018
 Red. masses --      1.1803                 1.1419                 1.2941
 Frc consts  --      1.0420                 1.0241                 1.2514
 IR Inten    --     32.8100                21.8155                17.7978

                     43                     44                     45
                      A                      A                      A
 Frequencies --   1294.5449              1303.9739              1318.5506
 Red. masses --      1.1572                 1.3886                 1.2863
 Frc consts  --      1.1426                 1.3911                 1.3176
 IR Inten    --      7.5855                 6.2050                24.4245

                     46                     47                     48
                      A                      A                      A
 Frequencies --   1347.3990              1367.2956              1389.2102
 Red. masses --      1.3392                 1.2722                 1.3263
 Frc consts  --      1.4325                 1.4013                 1.5081
 IR Inten    --     88.7865                19.8337                19.2566

                     49                     50                     51
                      A                      A                      A
 Frequencies --   1397.2648              1413.2164              1415.8191
 Red. masses --      1.1927                 1.3679                 1.2948
 Frc consts  --      1.3719                 1.6096                 1.5292
 IR Inten    --      9.8068                 1.3391                14.9274

                     52                     53                     54
                      A                      A                      A
 Frequencies --   1428.7953              1443.0445              1452.0305
 Red. masses --      1.2518                 1.3686                 1.4775
 Frc consts  --      1.5056                 1.6791                 1.8354
 IR Inten    --     85.0143                26.9619                10.0169

                     55                     56                     57
                      A                      A                      A
 Frequencies --   1469.1364              1474.9359              1514.4715
 Red. masses --      1.3453                 1.5187                 1.0822
 Frc consts  --      1.7108                 1.9466                 1.4624
 IR Inten    --     40.3729                16.0906                 9.0278

                     58                     59                     60
                      A                      A                      A
 Frequencies --   1518.0838              3012.4849              3038.0224
 Red. masses --      1.0836                 1.0822                 1.0648
 Frc consts  --      1.4713                 5.7864                 5.7901
 IR Inten    --     14.5339                22.4629                41.1368

                     61                     62                     63
                      A                      A                      A
 Frequencies --   3061.1815              3068.0656              3075.5606
 Red. masses --      1.0685                 1.0858                 1.0861
 Frc consts  --      5.8991                 6.0218                 6.0529
 IR Inten    --     36.3535                 5.6017                60.0766

                     64                     65                     66
                      A                      A                      A
 Frequencies --   3114.8848              3128.3269              3147.7659
 Red. masses --      1.1005                 1.0863                 1.0977
 Frc consts  --      6.2912                 6.2636                 6.4084
 IR Inten    --     13.8621                 8.7497                21.0188

                     67                     68                     69
                      A                      A                      A
 Frequencies --   3751.5874              3852.4561              3853.7731
 Red. masses --      1.0658                 1.0653                 1.0653
 Frc consts  --      8.8382                 9.3154                 9.3216
 IR Inten    --    158.4126                75.4906                20.7520

                     70                     71                     72
                      A                      A                      A
 Frequencies --   3859.3524              3897.8158              3952.5473
 Red. masses --      1.0656                 1.0658                 1.0669
 Frc consts  --      9.3509                 9.5402                 9.8202
 IR Inten    --     94.2546                44.7239                61.1168

 - Thermochemistry -
 -------------------
 Temperature   298.150 Kelvin.  Pressure   1.00000 Atm.
 Atom     1 has atomic number  6 and mass  12.00000

 Molecular mass:   182.07904 amu.
 Principal axes and moments of inertia in atomic units:
                           1         2         3
     Eigenvalues --  1257.097623177.677743504.26355
           X            0.99998   0.00302  -0.00500
           Y           -0.00314   0.99972  -0.02345
           Z            0.00493   0.02347   0.99971
 This molecule is an asymmetric top.
 Rotational symmetry number  1.
 Warning -- assumption of classical behavior for rotation
           may cause significant error
 Rotational temperatures (Kelvin)      0.06890     0.02726     0.02472
 Rotational constants (GHZ):           1.43564     0.56794     0.51501
 Zero-point vibrational energy     586039.8 (Joules/Mol)
                                  140.06687 (Kcal/Mol)
 Warning -- explicit consideration of  22 degrees of freedom as
           vibrations may cause significant error
 Vibrational temperatures:     60.42   103.74   142.09   165.63   224.64
          (Kelvin)            243.66   302.26   337.30   368.25   404.63
                              451.33   464.87   514.23   529.22   558.75
                              623.24   640.91   684.90   725.61   753.16
                              777.73   812.36   997.98  1049.09  1167.58
                             1216.55  1296.75  1380.66  1396.61  1416.18
                             1518.73  1543.80  1578.07  1592.40  1623.90
                             1634.45  1645.88  1678.40  1728.60  1761.23
                             1775.13  1843.22  1862.56  1876.13  1897.10
                             1938.61  1967.23  1998.76  2010.35  2033.30
                             2037.05  2055.72  2076.22  2089.15  2113.76
                             2122.10  2178.99  2184.18  4334.29  4371.04
                             4404.36  4414.26  4425.05  4481.62  4500.96
                             4528.93  5397.70  5542.83  5544.72  5552.75
                             5608.09  5686.83

 Zero-point correction=                           0.223211 (Hartree/Particle)
 Thermal correction to Energy=                    0.236655
 Thermal correction to Enthalpy=                  0.237599
 Thermal correction to Gibbs Free Energy=         0.183685
 Sum of electronic and zero-point Energies=           -688.256799
 Sum of electronic and thermal Energies=              -688.243355
 Sum of electronic and thermal Enthalpies=            -688.242411
 Sum of electronic and thermal Free Energies=         -688.296325

                     E (Thermal)             CV                S
                      KCal/Mol        Cal/Mol-Kelvin    Cal/Mol-Kelvin
 Total                  148.503             50.427            113.473
 Electronic               0.000              0.000              0.000
 Translational            0.889              2.981             41.504
 Rotational               0.889              2.981             31.016
 Vibrational            146.726             44.465             40.953
 Vibration     1          0.595              1.980              5.163
 Vibration     2          0.598              1.967              4.095
 Vibration     3          0.604              1.950              3.479
 Vibration     4          0.608              1.937              3.181
 Vibration     5          0.620              1.896              2.596
 Vibration     6          0.625              1.880              2.443
 Vibration     7          0.642              1.825              2.043
 Vibration     8          0.654              1.788              1.845
 Vibration     9          0.666              1.753              1.689
 Vibration    10          0.681              1.708              1.526
 Vibration    11          0.702              1.648              1.343
 Vibration    12          0.708              1.629              1.294
 Vibration    13          0.733              1.560              1.133
 Vibration    14          0.740              1.538              1.089
 Vibration    15          0.757              1.495              1.006
 Vibration    16          0.794              1.398              0.848
 Vibration    17          0.805              1.371              0.810
 Vibration    18          0.833              1.303              0.721
 Vibration    19          0.860              1.240              0.647
 Vibration    20          0.878              1.198              0.602
 Vibration    21          0.896              1.160              0.564
 Vibration    22          0.920              1.108              0.515

 Optimization completed.
    -- Stationary point found.
 Normal termination of Gaussian 16 at Wed Oct 11 15:27:49 2023.
