 Gaussian 16, Revision C.01,
 Gaussian 16:  ES64L-G16RevC.01  3-Jul-2019

 ---------------------------------------------
 # opt freq wb97xd/Def2TZVPP geom=connectivity
 ---------------------------------------------

 --------------------------------
 Mannitol Conformer Optimziations
 --------------------------------
 Symbolic Z-matrix:
 Charge =  0 Multiplicity = 1

 SCF Done:  E(RwB97XD) =  -688.469225780     A.U. after   14 cycles
 SCF Done:  E(RwB97XD) =  -688.478372833     A.U. after   11 cycles
 SCF Done:  E(RwB97XD) =  -688.479016886     A.U. after   11 cycles
 SCF Done:  E(RwB97XD) =  -688.479194901     A.U. after   12 cycles
 SCF Done:  E(RwB97XD) =  -688.479743173     A.U. after   11 cycles
 SCF Done:  E(RwB97XD) =  -688.479750481     A.U. after   11 cycles
 SCF Done:  E(RwB97XD) =  -688.479822362     A.U. after   10 cycles
 SCF Done:  E(RwB97XD) =  -688.479847382     A.U. after    9 cycles
 SCF Done:  E(RwB97XD) =  -688.479859998     A.U. after   10 cycles
 SCF Done:  E(RwB97XD) =  -688.479865775     A.U. after    9 cycles
 SCF Done:  E(RwB97XD) =  -688.479867029     A.U. after    8 cycles
 SCF Done:  E(RwB97XD) =  -688.479870053     A.U. after    9 cycles
 SCF Done:  E(RwB97XD) =  -688.479870345     A.U. after    8 cycles
 SCF Done:  E(RwB97XD) =  -688.479870414     A.U. after    6 cycles
 Optimization completed.
    -- Stationary point found.
 Normal termination of Gaussian 16 at Wed Sep 27 11:34:56 2023.

 ----------------------------------------------------------------------
 #N Geom=AllCheck Guess=TCheck SCRF=Check GenChk RwB97XD/def2TZVPP Freq
 ----------------------------------------------------------------------

 Structure from the checkpoint file:  "MannitolConformerOpt_1.chk"
 --------------------------------
 Mannitol Conformer Optimziations
 --------------------------------
 Charge =  0 Multiplicity = 1

                         Standard orientation:
 ---------------------------------------------------------------------
 Center     Atomic      Atomic             Coordinates (Angstroms)
 Number     Number       Type             X           Y           Z
 ---------------------------------------------------------------------
      1          6           0       -0.637212    0.806281   -0.338216
      2          6           0        0.689212    0.987154    0.396644
      3          6           0       -1.593732   -0.164774    0.341523
      4          6           0        1.596125   -0.235636    0.504917
      5          1           0        0.459331    1.318111    1.417747
      6          1           0       -0.439442    0.436750   -1.352862
      7          6           0       -2.984904   -0.087853   -0.263455
      8          1           0       -1.668102    0.090441    1.406743
      9          6           0        1.926316   -0.892733   -0.828348
     10          1           0        1.115976   -0.972658    1.155723
     11          1           0       -2.916293   -0.232983   -1.347257
     12          1           0       -3.428327    0.887159   -0.061230
     13          1           0        2.295849   -0.145561   -1.529896
     14          1           0        1.036347   -1.365591   -1.245046
     15          8           0       -3.730043   -1.137016    0.339818
     16          1           0       -4.574609   -1.218515   -0.097621
     17          8           0       -1.084658   -1.475573    0.191065
     18          1           0       -1.814433   -2.069145    0.383763
     19          8           0       -1.288204    2.057402   -0.399701
     20          1           0       -0.611833    2.708355   -0.600650
     21          8           0        1.360722    2.027720   -0.292436
     22          1           0        2.245363    2.072613    0.078768
     23          8           0        2.791600    0.239209    1.106516
     24          1           0        3.479787   -0.390835    0.877059
     25          8           0        2.979038   -1.832919   -0.658483
     26          1           0        2.617914   -2.623358   -0.257869
 ---------------------------------------------------------------------

 SCF Done:  E(RwB97XD) =  -688.479870414     A.U. after    1 cycles

 The electronic state is 1-A.
 Alpha  occ. eigenvalues --  -19.26592 -19.26267 -19.25463 -19.25389 -19.25197
 Alpha  occ. eigenvalues --  -19.24830 -10.33983 -10.33957 -10.33764 -10.33339
 Alpha  occ. eigenvalues --  -10.33331 -10.32821  -1.16020  -1.15367  -1.14303
 Alpha  occ. eigenvalues --   -1.12681  -1.12269  -1.11050  -0.88866  -0.85421
 Alpha  occ. eigenvalues --   -0.80300  -0.75496  -0.71156  -0.67779  -0.64198
 Alpha  occ. eigenvalues --   -0.62924  -0.61578  -0.60245  -0.59607  -0.57350
 Alpha  occ. eigenvalues --   -0.56702  -0.56045  -0.53710  -0.51729  -0.50732
 Alpha  occ. eigenvalues --   -0.50121  -0.48212  -0.46025  -0.45650  -0.44672
 Alpha  occ. eigenvalues --   -0.43720  -0.43115  -0.41198  -0.39486  -0.37883
 Alpha  occ. eigenvalues --   -0.37075  -0.36614  -0.36256  -0.35237
 Alpha virt. eigenvalues --    0.09516   0.10101   0.12106   0.12890   0.13849
 Alpha virt. eigenvalues --    0.15233   0.17095   0.17836   0.17954   0.19341
 Alpha virt. eigenvalues --    0.19996   0.21021   0.21228   0.21767   0.22189

 Mulliken charges:
               1
     1  C    0.124033
     2  C    0.083350
     3  C    0.157050
     4  C    0.123058
     5  H    0.089542
     6  H    0.068303
     7  C   -0.028545
     8  H    0.058253
     9  C    0.022948
    10  H    0.056384
    11  H    0.085746
    12  H    0.099351
    13  H    0.087758
    14  H    0.075900
    15  O   -0.344831
    16  H    0.170730
    17  O   -0.366293
    18  H    0.181022
    19  O   -0.364691
    20  H    0.191702
    21  O   -0.386438
    22  H    0.190292
    23  O   -0.386916
    24  H    0.195210
    25  O   -0.358287
    26  H    0.175368
 Sum of Mulliken charges =  -0.00000

 Dipole moment (field-independent basis, Debye):
    X=             -1.7912    Y=             -1.7212    Z=             -0.4439  Tot=              2.5235
 Quadrupole moment (field-independent basis, Debye-Ang):
   XX=            -65.3595   YY=            -69.4558   ZZ=            -74.4678
   XY=              2.8270   XZ=              4.7557   YZ=             -0.7458

  Exact polarizability:     109.708      -0.080      95.593       0.949      -0.457      81.912
 Approx polarizability:     106.331       0.617     105.340       0.067      -1.421      96.983

                      1                      2                      3
                      A                      A                      A
 Frequencies --     45.8570                65.2148               106.7137
 Red. masses --      4.5082                 6.0893                 4.1444
 Frc consts  --      0.0056                 0.0153                 0.0278
 IR Inten    --      3.8377                 2.0896                 0.4046

                      4                      5                      6
                      A                      A                      A
 Frequencies --    120.5417               137.2844               149.5953
 Red. masses --      4.5836                 3.7268                 3.4213
 Frc consts  --      0.0392                 0.0414                 0.0451
 IR Inten    --      3.9730                 1.4406                 9.5534

                      7                      8                      9
                      A                      A                      A
 Frequencies --    180.7701               235.6223               243.2420
 Red. masses --      4.8296                 1.4846                 2.4114
 Frc consts  --      0.0930                 0.0486                 0.0841
 IR Inten    --      4.4520                60.7682                44.9331

                     10                     11                     12
                      A                      A                      A
 Frequencies --    291.8985               305.4787               310.5065
 Red. masses --      4.4423                 5.1044                 3.3098
 Frc consts  --      0.2230                 0.2806                 0.1880
 IR Inten    --     10.8171                 8.1766                12.4694

                     13                     14                     15
                      A                      A                      A
 Frequencies --    325.4134               331.9934               363.9124
 Red. masses --      3.6756                 1.2215                 5.1539
 Frc consts  --      0.2293                 0.0793                 0.4021
 IR Inten    --      3.9004                75.7152                 2.5181

                     16                     17                     18
                      A                      A                      A
 Frequencies --    402.7520               446.1481               463.1927
 Red. masses --      2.4641                 1.2586                 1.3357
 Frc consts  --      0.2355                 0.1476                 0.1688
 IR Inten    --      1.5489                21.9604               186.5539

                     19                     20                     21
                      A                      A                      A
 Frequencies --    480.7019               498.6516               537.4292
 Red. masses --      1.0897                 2.1665                 1.5038
 Frc consts  --      0.1484                 0.3174                 0.2559
 IR Inten    --     76.0237                 9.2108               120.3356

                     22                     23                     24
                      A                      A                      A
 Frequencies --    549.7221               570.8292               619.3854
 Red. masses --      2.4989                 3.2085                 3.1657
 Frc consts  --      0.4449                 0.6160                 0.7156
 IR Inten    --      9.2411                23.1658                75.5637

                     25                     26                     27
                      A                      A                      A
 Frequencies --    727.6837               880.4901               911.9518
 Red. masses --      3.8308                 2.9180                 2.3252
 Frc consts  --      1.1952                 1.3329                 1.1393
 IR Inten    --     25.5020                16.7648                15.5154

                     28                     29                     30
                      A                      A                      A
 Frequencies --    957.2190              1024.6402              1049.8136
 Red. masses --      2.2422                 2.6751                 2.8176
 Frc consts  --      1.2104                 1.6548                 1.8296
 IR Inten    --     12.5506                11.6411                28.0616

                     31                     32                     33
                      A                      A                      A
 Frequencies --   1072.0565              1076.0917              1103.2678
 Red. masses --      2.3020                 3.1417                 2.9350
 Frc consts  --      1.5588                 2.1434                 2.1048
 IR Inten    --     20.6151               167.1363                18.0613

                     34                     35                     36
                      A                      A                      A
 Frequencies --   1104.5369              1124.7187              1133.3188
 Red. masses --      3.0202                 3.7601                 2.8295
 Frc consts  --      2.1709                 2.8025                 2.1413
 IR Inten    --     40.8782               251.7827                28.4339

                     37                     38                     39
                      A                      A                      A
 Frequencies --   1140.6191              1159.6429              1202.0720
 Red. masses --      2.9186                 2.9165                 1.3007
 Frc consts  --      2.2372                 2.3108                 1.1074
 IR Inten    --     49.1765                 0.9696                19.6218

                     40                     41                     42
                      A                      A                      A
 Frequencies --   1225.6719              1247.7699              1277.8091
 Red. masses --      1.2270                 1.1969                 1.2087
 Frc consts  --      1.0860                 1.0979                 1.1628
 IR Inten    --     73.9042                53.6650                 2.5211

                     43                     44                     45
                      A                      A                      A
 Frequencies --   1286.3822              1295.3292              1315.0280
 Red. masses --      1.1509                 1.1745                 1.1357
 Frc consts  --      1.1220                 1.1611                 1.1572
 IR Inten    --     13.5118                31.8079                 3.7056

                     46                     47                     48
                      A                      A                      A
 Frequencies --   1361.2504              1361.4159              1376.8027
 Red. masses --      1.2638                 1.2110                 1.2352
 Frc consts  --      1.3798                 1.3224                 1.3796
 IR Inten    --     41.0222                48.1389                45.0978

                     49                     50                     51
                      A                      A                      A
 Frequencies --   1386.4288              1396.0990              1400.3325
 Red. masses --      1.3079                 1.2562                 1.2746
 Frc consts  --      1.4812                 1.4426                 1.4726
 IR Inten    --     64.9781                12.2307                27.6454

                     52                     53                     54
                      A                      A                      A
 Frequencies --   1405.8178              1447.1131              1453.5564
 Red. masses --      1.2516                 1.5549                 1.4918
 Frc consts  --      1.4573                 1.9185                 1.8571
 IR Inten    --      9.7776                 8.7528                 4.6166

                     55                     56                     57
                      A                      A                      A
 Frequencies --   1466.1054              1494.8405              1514.1097
 Red. masses --      1.6370                 1.9665                 1.0857
 Frc consts  --      2.0732                 2.5889                 1.4665
 IR Inten    --     15.8461                 1.2291                 3.9620

                     58                     59                     60
                      A                      A                      A
 Frequencies --   1518.1309              3003.4305              3006.7589
 Red. masses --      1.0886                 1.0803                 1.0828
 Frc consts  --      1.4783                 5.7416                 5.7677
 IR Inten    --      5.5721                 2.2068                 2.7068

                     61                     62                     63
                      A                      A                      A
 Frequencies --   3021.6575              3032.4502              3058.3800
 Red. masses --      1.0833                 1.0678                 1.0842
 Frc consts  --      5.8274                 5.7855                 5.9751
 IR Inten    --     55.9723                72.6478                26.8243

                     64                     65                     66
                      A                      A                      A
 Frequencies --   3082.8881              3115.4048              3142.4987
 Red. masses --      1.0583                 1.0998                 1.1088
 Frc consts  --      5.9259                 6.2893                 6.4513
 IR Inten    --     21.1596                21.7798                13.7447

                     67                     68                     69
                      A                      A                      A
 Frequencies --   3847.0118              3860.4316              3862.7539
 Red. masses --      1.0654                 1.0653                 1.0654
 Frc consts  --      9.2903                 9.3542                 9.3660
 IR Inten    --     99.5003               140.1895                70.1395

                     70                     71                     72
                      A                      A                      A
 Frequencies --   3863.5001              3911.4477              3949.3463
 Red. masses --      1.0656                 1.0664                 1.0668
 Frc consts  --      9.3711                 9.6123                 9.8039
 IR Inten    --     23.8671                36.1928                58.4427

 - Thermochemistry -
 -------------------
 Temperature   298.150 Kelvin.  Pressure   1.00000 Atm.
 Atom     1 has atomic number  6 and mass  12.00000

 Molecular mass:   182.07904 amu.
 Principal axes and moments of inertia in atomic units:
                           1         2         3
     Eigenvalues --  1314.202643326.091004183.34182
           X            1.00000  -0.00144   0.00273
           Y            0.00143   1.00000   0.00274
           Z           -0.00273  -0.00274   0.99999
 This molecule is an asymmetric top.
 Rotational symmetry number  1.
 Warning -- assumption of classical behavior for rotation
           may cause significant error
 Rotational temperatures (Kelvin)      0.06591     0.02604     0.02070
 Rotational constants (GHZ):           1.37326     0.54260     0.43141
 Zero-point vibrational energy     582814.2 (Joules/Mol)
                                  139.29595 (Kcal/Mol)
 Warning -- explicit consideration of  24 degrees of freedom as
           vibrations may cause significant error
 Vibrational temperatures:     65.98    93.83   153.54   173.43   197.52
          (Kelvin)            215.23   260.09   339.01   349.97   419.98
                              439.52   446.75   468.20   477.66   523.59
                              579.47   641.91   666.43   691.62   717.45
                              773.24   790.93   821.30   891.16  1046.97
                             1266.83  1312.10  1377.22  1474.23  1510.45
                             1542.45  1548.26  1587.36  1589.18  1618.22
                             1630.59  1641.10  1668.47  1729.51  1763.47
                             1795.26  1838.48  1850.82  1863.69  1892.03
                             1958.54  1958.77  1980.91  1994.76  2008.68
                             2014.77  2022.66  2082.07  2091.34  2109.40
                             2150.74  2178.47  2184.25  4321.27  4326.06
                             4347.49  4363.02  4400.33  4435.59  4482.37
                             4521.35  5534.99  5554.30  5557.64  5558.71
                             5627.70  5682.23

 Zero-point correction=                           0.221982 (Hartree/Particle)
 Thermal correction to Energy=                    0.235844
 Thermal correction to Enthalpy=                  0.236789
 Thermal correction to Gibbs Free Energy=         0.181934
 Sum of electronic and zero-point Energies=           -688.257888
 Sum of electronic and thermal Energies=              -688.244026
 Sum of electronic and thermal Enthalpies=            -688.243082
 Sum of electronic and thermal Free Energies=         -688.297936

                     E (Thermal)             CV                S
                      KCal/Mol        Cal/Mol-Kelvin    Cal/Mol-Kelvin
 Total                  147.995             51.406            115.451
 Electronic               0.000              0.000              0.000
 Translational            0.889              2.981             41.504
 Rotational               0.889              2.981             31.281
 Vibrational            146.217             45.444             42.666
 Vibration     1          0.595              1.979              4.989
 Vibration     2          0.597              1.971              4.293
 Vibration     3          0.606              1.944              3.328
 Vibration     4          0.609              1.932              3.092
 Vibration     5          0.614              1.916              2.841
 Vibration     6          0.618              1.903              2.677
 Vibration     7          0.630              1.866              2.320
 Vibration     8          0.655              1.786              1.836
 Vibration     9          0.659              1.774              1.779
 Vibration    10          0.687              1.689              1.463
 Vibration    11          0.696              1.663              1.387
 Vibration    12          0.699              1.654              1.360
 Vibration    13          0.710              1.625              1.283
 Vibration    14          0.714              1.612              1.250
 Vibration    15          0.737              1.547              1.105
 Vibration    16          0.768              1.464              0.953
 Vibration    17          0.805              1.369              0.808
 Vibration    18          0.821              1.332              0.757
 Vibration    19          0.837              1.293              0.708
 Vibration    20          0.854              1.253              0.662
 Vibration    21          0.892              1.167              0.571
 Vibration    22          0.905              1.140              0.545
 Vibration    23          0.927              1.094              0.503
 Vibration    24          0.979              0.991              0.417

                           ! Non-Optimized Parameters !
 Normal termination of Gaussian 16 at Wed Sep 27 12:14:42 2023.
