 Gaussian 16, Revision C.01,
 Gaussian 16:  ES64L-G16RevC.01  3-Jul-2019

 ---------------------------------------------
 # opt freq wb97xd/def2tzvpp geom=connectivity
 ---------------------------------------------

 --------------------------------
 Mannitol Conformer Optimziations
 --------------------------------
 Symbolic Z-matrix:
 Charge =  0 Multiplicity = 1

 SCF Done:  E(RwB97XD) =  -688.472609969     A.U. after   13 cycles
 SCF Done:  E(RwB97XD) =  -688.481236205     A.U. after   12 cycles
 SCF Done:  E(RwB97XD) =  -688.481249364     A.U. after   12 cycles
 SCF Done:  E(RwB97XD) =  -688.482207390     A.U. after   12 cycles
 SCF Done:  E(RwB97XD) =  -688.482917986     A.U. after   12 cycles
 SCF Done:  E(RwB97XD) =  -688.483172221     A.U. after   11 cycles
 SCF Done:  E(RwB97XD) =  -688.483179210     A.U. after   10 cycles
 SCF Done:  E(RwB97XD) =  -688.483212180     A.U. after    9 cycles
 SCF Done:  E(RwB97XD) =  -688.483196097     A.U. after    9 cycles
 SCF Done:  E(RwB97XD) =  -688.483159256     A.U. after   10 cycles
 SCF Done:  E(RwB97XD) =  -688.483212114     A.U. after   10 cycles
 SCF Done:  E(RwB97XD) =  -688.483218522     A.U. after    8 cycles
 SCF Done:  E(RwB97XD) =  -688.483218659     A.U. after    6 cycles
 SCF Done:  E(RwB97XD) =  -688.483218726     A.U. after    6 cycles
 Optimization completed.
    -- Stationary point found.
 Normal termination of Gaussian 16 at Wed Sep 27 11:51:40 2023.

 ----------------------------------------------------------------------
 #N Geom=AllCheck Guess=TCheck SCRF=Check GenChk RwB97XD/def2TZVPP Freq
 ----------------------------------------------------------------------

 Structure from the checkpoint file:  "MannitolConformerOpt_21.chk"
 --------------------------------
 Mannitol Conformer Optimziations
 --------------------------------
 Charge =  0 Multiplicity = 1

                         Standard orientation:
 ---------------------------------------------------------------------
 Center     Atomic      Atomic             Coordinates (Angstroms)
 Number     Number       Type             X           Y           Z
 ---------------------------------------------------------------------
      1          6           0       -0.237902    0.048719    0.729123
      2          6           0        0.237758    0.048532   -0.729182
      3          6           0       -1.757227    0.048100    0.913989
      4          6           0        1.757088    0.048344   -0.914140
      5          1           0       -0.151075    0.958840   -1.197629
      6          1           0        0.150597    0.959334    1.197251
      7          6           0       -2.517289    1.190156    0.259364
      8          1           0       -1.928168    0.123572    1.994264
      9          6           0        2.516841    1.190467   -0.259236
     10          1           0        1.927933    0.124070   -1.994412
     11          1           0       -3.522572    1.225689    0.691505
     12          1           0       -2.021653    2.133089    0.494292
     13          1           0        2.020568    2.133280   -0.493307
     14          1           0        3.521897    1.226866   -0.691824
     15          8           0       -2.585598    1.102420   -1.144788
     16          1           0       -3.026518    0.281721   -1.366101
     17          8           0       -2.322545   -1.168172    0.434922
     18          1           0       -1.835709   -1.875144    0.867214
     19          8           0        0.198786   -1.092352    1.447495
     20          1           0        1.089055   -1.302787    1.151615
     21          8           0       -0.198601   -1.092952   -1.447115
     22          1           0       -1.088453   -1.304094   -1.150454
     23          8           0        2.322737   -1.167855   -0.435365
     24          1           0        1.835377   -1.874828   -0.867086
     25          8           0        2.585900    1.101803    1.144832
     26          1           0        3.027678    0.281340    1.365316
 ---------------------------------------------------------------------

 SCF Done:  E(RwB97XD) =  -688.483218726     A.U. after    1 cycles

 The electronic state is 1-A.
 Alpha  occ. eigenvalues --  -19.26998 -19.26993 -19.25656 -19.25655 -19.25100
 Alpha  occ. eigenvalues --  -19.25099 -10.34460 -10.34457 -10.33871 -10.33857
 Alpha  occ. eigenvalues --  -10.33856 -10.33850  -1.16978  -1.15616  -1.13565
 Alpha  occ. eigenvalues --   -1.13141  -1.12176  -1.11921  -0.89118  -0.86472
 Alpha  occ. eigenvalues --   -0.80580  -0.76364  -0.71255  -0.69117  -0.65536
 Alpha  occ. eigenvalues --   -0.61918  -0.61538  -0.60795  -0.59711  -0.57309
 Alpha  occ. eigenvalues --   -0.56758  -0.56348  -0.53199  -0.51937  -0.51714
 Alpha  occ. eigenvalues --   -0.50843  -0.49641  -0.47355  -0.46185  -0.45352
 Alpha  occ. eigenvalues --   -0.44434  -0.42769  -0.42685  -0.39785  -0.37971
 Alpha  occ. eigenvalues --   -0.37398  -0.37076  -0.35845  -0.35300
 Alpha virt. eigenvalues --    0.09147   0.11247   0.11661   0.12729   0.14525
 Alpha virt. eigenvalues --    0.15272   0.15530   0.17770   0.17930   0.18807
 Alpha virt. eigenvalues --    0.19686   0.20087   0.21846   0.22549   0.23124

 Mulliken charges:
               1
     1  C    0.104372
     2  C    0.104174
     3  C    0.098195
     4  C    0.098301
     5  H    0.082051
     6  H    0.081966
     7  C    0.018614
     8  H    0.095748
     9  C    0.018572
    10  H    0.095707
    11  H    0.096562
    12  H    0.070990
    13  H    0.071009
    14  H    0.096572
    15  O   -0.342614
    16  H    0.176707
    17  O   -0.381972
    18  H    0.188973
    19  O   -0.403103
    20  H    0.195696
    21  O   -0.403215
    22  H    0.195745
    23  O   -0.382130
    24  H    0.189041
    25  O   -0.342636
    26  H    0.176675
 Sum of Mulliken charges =  -0.00000

 Dipole moment (field-independent basis, Debye):
    X=             -0.0013    Y=             -0.3470    Z=              0.0012  Tot=              0.3470
 Quadrupole moment (field-independent basis, Debye-Ang):
   XX=            -70.0221   YY=            -70.8710   ZZ=            -76.0138
   XY=              0.0047   XZ=             -4.5171   YZ=             -0.0029

  Exact polarizability:     103.466       0.003      90.711      -2.515      -0.002      89.363
 Approx polarizability:     101.594      -0.001     105.716       0.150      -0.002     102.417

                      1                      2                      3
                      A                      A                      A
 Frequencies --     63.7111                95.9036               106.0371
 Red. masses --      5.8643                 3.5137                 3.5109
 Frc consts  --      0.0140                 0.0190                 0.0233
 IR Inten    --      1.4483                 0.2862                 7.2390

                      4                      5                      6
                      A                      A                      A
 Frequencies --    128.4041               130.9957               182.0465
 Red. masses --      6.1143                 5.9635                 4.9766
 Frc consts  --      0.0594                 0.0603                 0.0972
 IR Inten    --      1.0779                 0.2330                22.2979

                      7                      8                      9
                      A                      A                      A
 Frequencies --    207.3616               256.5814               262.2303
 Red. masses --      4.2517                 4.7229                 5.3439
 Frc consts  --      0.1077                 0.1832                 0.2165
 IR Inten    --      0.0546                 4.1066                 2.1258

                     10                     11                     12
                      A                      A                      A
 Frequencies --    275.4811               292.9518               308.0076
 Red. masses --      2.9509                 1.8461                 3.6173
 Frc consts  --      0.1319                 0.0933                 0.2022
 IR Inten    --      8.1405               105.7735                 6.6360

                     13                     14                     15
                      A                      A                      A
 Frequencies --    327.4671               339.1121               374.9132
 Red. masses --      1.5894                 1.5744                 3.0653
 Frc consts  --      0.1004                 0.1067                 0.2539
 IR Inten    --    111.7764                73.5192                26.9481

                     16                     17                     18
                      A                      A                      A
 Frequencies --    411.4500               414.1045               461.6229
 Red. masses --      2.6124                 1.4134                 1.1477
 Frc consts  --      0.2606                 0.1428                 0.1441
 IR Inten    --      3.3097               258.9095                 0.1235

                     19                     20                     21
                      A                      A                      A
 Frequencies --    494.1596               605.0585               676.7466
 Red. masses --      2.6420                 3.1195                 1.0724
 Frc consts  --      0.3801                 0.6729                 0.2894
 IR Inten    --    194.0274                37.4256                44.8649

                     22                     23                     24
                      A                      A                      A
 Frequencies --    700.3486               705.4678               740.8653
 Red. masses --      1.2201                 4.9799                 3.9017
 Frc consts  --      0.3526                 1.4602                 1.2618
 IR Inten    --      3.7272                 5.6339                26.3860

                     25                     26                     27
                      A                      A                      A
 Frequencies --    822.8637               859.4406               868.5659
 Red. masses --      7.0972                 4.2459                 2.5878
 Frc consts  --      2.8314                 1.8478                 1.1502
 IR Inten    --     25.2399                19.1690                 8.9529

                     28                     29                     30
                      A                      A                      A
 Frequencies --    916.2672               926.4117               962.5879
 Red. masses --      3.0771                 1.9842                 1.6820
 Frc consts  --      1.5221                 1.0033                 0.9182
 IR Inten    --     16.7662                35.7276                 5.1041

                     31                     32                     33
                      A                      A                      A
 Frequencies --   1036.7932              1037.5955              1101.1053
 Red. masses --      2.7165                 2.6888                 2.7230
 Frc consts  --      1.7205                 1.7056                 1.9451
 IR Inten    --      0.0139                14.5984                85.7572

                     34                     35                     36
                      A                      A                      A
 Frequencies --   1105.2988              1112.1240              1147.7236
 Red. masses --      2.1358                 3.0256                 3.5301
 Frc consts  --      1.5374                 2.2048                 2.7398
 IR Inten    --     27.0220                64.7394               166.0563

                     37                     38                     39
                      A                      A                      A
 Frequencies --   1157.6270              1173.0640              1209.2256
 Red. masses --      3.2082                 3.6388                 1.1156
 Frc consts  --      2.5331                 2.9502                 0.9611
 IR Inten    --    101.5987                14.2691                 2.3801

                     40                     41                     42
                      A                      A                      A
 Frequencies --   1210.9279              1282.8778              1291.0371
 Red. masses --      1.1519                 1.1020                 1.1595
 Frc consts  --      0.9952                 1.0686                 1.1387
 IR Inten    --     10.7431                41.8101                44.4719

                     43                     44                     45
                      A                      A                      A
 Frequencies --   1292.6868              1306.3309              1342.3863
 Red. masses --      1.1870                 1.1150                 1.2059
 Frc consts  --      1.1687                 1.1211                 1.2803
 IR Inten    --      9.2466                36.5326                 8.1526

                     46                     47                     48
                      A                      A                      A
 Frequencies --   1366.4809              1389.1355              1402.4484
 Red. masses --      1.3675                 1.2788                 1.2214
 Frc consts  --      1.5045                 1.4540                 1.4154
 IR Inten    --     61.6941                 0.3185                 9.0012

                     49                     50                     51
                      A                      A                      A
 Frequencies --   1407.4965              1420.6182              1422.8436
 Red. masses --      1.2716                 1.2711                 1.2984
 Frc consts  --      1.4843                 1.5114                 1.5488
 IR Inten    --     23.1221                13.6676                 1.5689

                     52                     53                     54
                      A                      A                      A
 Frequencies --   1429.6352              1443.8790              1446.7654
 Red. masses --      1.2873                 1.3682                 1.6843
 Frc consts  --      1.5502                 1.6806                 2.0772
 IR Inten    --      3.1251                98.2185                19.8711

                     55                     56                     57
                      A                      A                      A
 Frequencies --   1451.4647              1481.0542              1505.4930
 Red. masses --      1.8172                 1.7165                 1.0869
 Frc consts  --      2.2556                 2.2184                 1.4515
 IR Inten    --     33.8751                24.8178                 2.8582

                     58                     59                     60
                      A                      A                      A
 Frequencies --   1507.0792              3023.2173              3023.4302
 Red. masses --      1.0927                 1.0791                 1.0788
 Frc consts  --      1.4622                 5.8109                 5.8101
 IR Inten    --      5.8412                17.1796                 0.3764

                     61                     62                     63
                      A                      A                      A
 Frequencies --   3039.6506              3040.6857              3049.8655
 Red. masses --      1.0725                 1.0725                 1.0838
 Frc consts  --      5.8386                 5.8425                 5.9394
 IR Inten    --    101.7128                 9.2043                36.1536

                     64                     65                     66
                      A                      A                      A
 Frequencies --   3059.0909              3110.5249              3110.9212
 Red. masses --      1.0841                 1.0980                 1.0981
 Frc consts  --      5.9772                 6.2590                 6.2613
 IR Inten    --     46.4183                21.3333                19.8442

                     67                     68                     69
                      A                      A                      A
 Frequencies --   3819.5561              3823.4854              3856.5709
 Red. masses --      1.0659                 1.0665                 1.0651
 Frc consts  --      9.1618                 9.1858                 9.3335
 IR Inten    --     31.9223               302.7562                63.0454

                     70                     71                     72
                      A                      A                      A
 Frequencies --   3857.6631              3906.0740              3906.2132
 Red. masses --      1.0651                 1.0659                 1.0659
 Frc consts  --      9.3386                 9.5817                 9.5824
 IR Inten    --     66.6244                42.9725                40.9587

 - Thermochemistry -
 -------------------
 Temperature   298.150 Kelvin.  Pressure   1.00000 Atm.
 Atom     1 has atomic number  6 and mass  12.00000

 Molecular mass:   182.07904 amu.
 Principal axes and moments of inertia in atomic units:
                           1         2         3
     Eigenvalues --  1246.866953047.528353082.78155
           X            0.99992   0.00000  -0.01271
           Y           -0.00001   1.00000  -0.00013
           Z            0.01271   0.00013   0.99992
 This molecule is an asymmetric top.
 Rotational symmetry number  1.
 Warning -- assumption of classical behavior for rotation
           may cause significant error
 Rotational temperatures (Kelvin)      0.06947     0.02842     0.02810
 Rotational constants (GHZ):           1.44742     0.59220     0.58543
 Zero-point vibrational energy     586321.6 (Joules/Mol)
                                  140.13422 (Kcal/Mol)
 Warning -- explicit consideration of  20 degrees of freedom as
           vibrations may cause significant error
 Vibrational temperatures:     91.67   137.98   152.56   184.74   188.47
          (Kelvin)            261.92   298.35   369.16   377.29   396.36
                              421.49   443.15   471.15   487.91   539.42
                              591.98   595.80   664.17   710.99   870.54
                              973.69  1007.65  1015.01  1065.94  1183.92
                             1236.54  1249.67  1318.30  1332.90  1384.95
                             1491.71  1492.87  1584.24  1590.28  1600.10
                             1651.32  1665.57  1687.78  1739.81  1742.26
                             1845.78  1857.51  1859.89  1879.52  1931.39
                             1966.06  1998.66  2017.81  2025.07  2043.95
                             2047.15  2056.93  2077.42  2081.57  2088.33
                             2130.91  2166.07  2168.35  4349.74  4350.04
                             4373.38  4374.87  4388.08  4401.35  4475.35
                             4475.92  5495.49  5501.14  5548.75  5550.32
                             5619.97  5620.17

 Zero-point correction=                           0.223318 (Hartree/Particle)
 Thermal correction to Energy=                    0.236635
 Thermal correction to Enthalpy=                  0.237580
 Thermal correction to Gibbs Free Energy=         0.184460
 Sum of electronic and zero-point Energies=           -688.259901
 Sum of electronic and thermal Energies=              -688.246583
 Sum of electronic and thermal Enthalpies=            -688.245639
 Sum of electronic and thermal Free Energies=         -688.298759

                     E (Thermal)             CV                S
                      KCal/Mol        Cal/Mol-Kelvin    Cal/Mol-Kelvin
 Total                  148.491             50.085            111.800
 Electronic               0.000              0.000              0.000
 Translational            0.889              2.981             41.504
 Rotational               0.889              2.981             30.839
 Vibrational            146.713             44.123             39.457
 Vibration     1          0.597              1.972              4.339
 Vibration     2          0.603              1.952              3.536
 Vibration     3          0.605              1.944              3.340
 Vibration     4          0.611              1.925              2.970
 Vibration     5          0.612              1.922              2.931
 Vibration     6          0.630              1.864              2.307
 Vibration     7          0.641              1.829              2.067
 Vibration     8          0.666              1.752              1.685
 Vibration     9          0.670              1.742              1.647
 Vibration    10          0.677              1.719              1.562
 Vibration    11          0.688              1.687              1.457
 Vibration    12          0.698              1.658              1.373
 Vibration    13          0.711              1.621              1.273
 Vibration    14          0.719              1.597              1.216
 Vibration    15          0.746              1.524              1.060
 Vibration    16          0.775              1.445              0.922
 Vibration    17          0.778              1.440              0.912
 Vibration    18          0.819              1.335              0.761
 Vibration    19          0.850              1.263              0.673
 Vibration    20          0.964              1.021              0.441

                           ! Non-Optimized Parameters !
 Normal termination of Gaussian 16 at Wed Sep 27 12:32:12 2023.
