 Gaussian 16, Revision C.01,
 Gaussian 16:  ES64L-G16RevC.01  3-Jul-2019

 ---------------------------------------------
 # opt freq wb97xd/def2tzvpp geom=connectivity
 ---------------------------------------------

 --------------------------------
 Mannitol Conformer Optimziations
 --------------------------------
 Symbolic Z-matrix:
 Charge =  0 Multiplicity = 1

 SCF Done:  E(RwB97XD) =  -688.465065681     A.U. after   13 cycles
 SCF Done:  E(RwB97XD) =  -688.475359537     A.U. after   12 cycles
 SCF Done:  E(RwB97XD) =  -688.476257489     A.U. after   11 cycles
 SCF Done:  E(RwB97XD) =  -688.476237494     A.U. after   11 cycles
 SCF Done:  E(RwB97XD) =  -688.476810914     A.U. after   11 cycles
 SCF Done:  E(RwB97XD) =  -688.476879363     A.U. after   10 cycles
 SCF Done:  E(RwB97XD) =  -688.476928024     A.U. after   11 cycles
 SCF Done:  E(RwB97XD) =  -688.476948235     A.U. after   10 cycles
 SCF Done:  E(RwB97XD) =  -688.476960657     A.U. after   10 cycles
 SCF Done:  E(RwB97XD) =  -688.476963135     A.U. after    9 cycles
 SCF Done:  E(RwB97XD) =  -688.476963459     A.U. after    7 cycles
 Optimization completed.
    -- Stationary point found.
 Normal termination of Gaussian 16 at Wed Sep 27 11:21:58 2023.

 ----------------------------------------------------------------------
 #N Geom=AllCheck Guess=TCheck SCRF=Check GenChk RwB97XD/def2TZVPP Freq
 ----------------------------------------------------------------------

 Structure from the checkpoint file:  "MannitolConformerOpt_6.chk"
 --------------------------------
 Mannitol Conformer Optimziations
 --------------------------------
 Charge =  0 Multiplicity = 1

                         Standard orientation:
 ---------------------------------------------------------------------
 Center     Atomic      Atomic             Coordinates (Angstroms)
 Number     Number       Type             X           Y           Z
 ---------------------------------------------------------------------
      1          6           0        0.481526    0.588318    0.428566
      2          6           0       -0.481552   -0.588378    0.428598
      3          6           0        1.948699    0.192424    0.612277
      4          6           0       -1.948716   -0.192454    0.612284
      5          1           0       -0.229024   -1.190799    1.313354
      6          1           0        0.228990    1.190782    1.313289
      7          6           0        2.502942   -0.729303   -0.462351
      8          1           0        2.059690   -0.294356    1.588980
      9          6           0       -2.502879    0.729356   -0.462316
     10          1           0       -2.059724    0.294279    1.589009
     11          1           0        2.075399   -1.726575   -0.360098
     12          1           0        2.245457   -0.339188   -1.449763
     13          1           0       -2.245400    0.339267   -1.449740
     14          1           0       -2.075268    1.726593   -0.360011
     15          8           0        3.914170   -0.748079   -0.269218
     16          1           0        4.328393   -1.156265   -1.026142
     17          8           0        2.664072    1.415707    0.604950
     18          1           0        3.578811    1.194152    0.412239
     19          8           0        0.326390    1.363162   -0.736525
     20          1           0        1.066558    1.975615   -0.743386
     21          8           0       -0.326431   -1.363285   -0.736454
     22          1           0       -1.066598   -1.975741   -0.743272
     23          8           0       -2.664126   -1.415714    0.604856
     24          1           0       -3.578848   -1.194122    0.412112
     25          8           0       -3.914109    0.748221   -0.269210
     26          1           0       -4.328287    1.156493   -1.026112
 ---------------------------------------------------------------------

 SCF Done:  E(RwB97XD) =  -688.476963459     A.U. after    1 cycles

 The electronic state is 1-A.
 Alpha  occ. eigenvalues --  -19.26125 -19.26125 -19.25137 -19.25137 -19.24542
 Alpha  occ. eigenvalues --  -19.24541 -10.33872 -10.33849 -10.33624 -10.33624
 Alpha  occ. eigenvalues --  -10.32626 -10.32626  -1.15814  -1.15237  -1.13647
 Alpha  occ. eigenvalues --   -1.12808  -1.11430  -1.10873  -0.88816  -0.85315
 Alpha  occ. eigenvalues --   -0.80322  -0.75239  -0.70867  -0.66300  -0.63493
 Alpha  occ. eigenvalues --   -0.62857  -0.61830  -0.59689  -0.59494  -0.57231
 Alpha  occ. eigenvalues --   -0.56661  -0.56407  -0.52623  -0.52154  -0.50079
 Alpha  occ. eigenvalues --   -0.49814  -0.48422  -0.45791  -0.45321  -0.44486
 Alpha  occ. eigenvalues --   -0.43210  -0.43139  -0.40844  -0.37569  -0.37541
 Alpha  occ. eigenvalues --   -0.36937  -0.36414  -0.36045  -0.35453
 Alpha virt. eigenvalues --    0.09984   0.10174   0.11136   0.13844   0.14166
 Alpha virt. eigenvalues --    0.15145   0.16159   0.17605   0.19395   0.20193
 Alpha virt. eigenvalues --    0.20202   0.20526   0.21856   0.22370   0.23227

 Mulliken charges:
               1
     1  C    0.122280
     2  C    0.122274
     3  C    0.120346
     4  C    0.120347
     5  H    0.080887
     6  H    0.080891
     7  C   -0.006156
     8  H    0.057821
     9  C   -0.006157
    10  H    0.057822
    11  H    0.082713
    12  H    0.095256
    13  H    0.095260
    14  H    0.082712
    15  O   -0.352065
    16  H    0.173762
    17  O   -0.389865
    18  H    0.198944
    19  O   -0.360407
    20  H    0.176484
    21  O   -0.360408
    22  H    0.176486
    23  O   -0.389867
    24  H    0.198944
    25  O   -0.352066
    26  H    0.173761
 Sum of Mulliken charges =  -0.00000

 Dipole moment (field-independent basis, Debye):
    X=              0.0002    Y=              0.0001    Z=             -1.5555  Tot=              1.5555
 Quadrupole moment (field-independent basis, Debye-Ang):
   XX=            -62.7255   YY=            -71.9322   ZZ=            -69.9931
   XY=             -5.2864   XZ=             -0.0005   YZ=             -0.0007

  Exact polarizability:     113.655      -0.573      89.403      -0.000      -0.000      84.552
 Approx polarizability:     106.667       1.452     101.234       0.000       0.000     100.569

                      1                      2                      3
                      A                      A                      A
 Frequencies --     43.3790                80.9497                81.7426
 Red. masses --      5.5151                 3.6989                 6.6529
 Frc consts  --      0.0061                 0.0143                 0.0262
 IR Inten    --      2.1469                 0.4246                 3.0073

                      4                      5                      6
                      A                      A                      A
 Frequencies --    127.3747               148.6265               157.1661
 Red. masses --      2.6655                 3.7782                 5.5475
 Frc consts  --      0.0255                 0.0492                 0.0807
 IR Inten    --      5.0107                 0.1343                15.4799

                      7                      8                      9
                      A                      A                      A
 Frequencies --    189.9498               253.8080               255.4749
 Red. masses --      4.7048                 1.2518                 1.1219
 Frc consts  --      0.1000                 0.0475                 0.0431
 IR Inten    --      0.1435                30.8995               148.4099

                     10                     11                     12
                      A                      A                      A
 Frequencies --    263.6165               274.8016               281.2266
 Red. masses --      4.6724                 4.0697                 5.3586
 Frc consts  --      0.1913                 0.1811                 0.2497
 IR Inten    --     33.0862                 2.8460                 5.6067

                     13                     14                     15
                      A                      A                      A
 Frequencies --    324.9026               327.0539               343.4118
 Red. masses --      4.3473                 4.6822                 5.4934
 Frc consts  --      0.2704                 0.2951                 0.3817
 IR Inten    --      9.4321                 0.0063                 8.1957

                     16                     17                     18
                      A                      A                      A
 Frequencies --    369.5821               464.8170               470.8653
 Red. masses --      4.6084                 1.0617                 1.0991
 Frc consts  --      0.3709                 0.1352                 0.1436
 IR Inten    --      3.1965                 0.3806               151.4057

                     19                     20                     21
                      A                      A                      A
 Frequencies --    498.9923               511.9034               540.1855
 Red. masses --      1.3360                 1.1377                 2.1697
 Frc consts  --      0.1960                 0.1757                 0.3730
 IR Inten    --     20.6356               187.7098                49.4477

                     22                     23                     24
                      A                      A                      A
 Frequencies --    559.9468               687.1110               739.3505
 Red. masses --      2.7947                 3.4689                 4.1420
 Frc consts  --      0.5163                 0.9649                 1.3340
 IR Inten    --     30.2182                82.0756                 0.2304

                     25                     26                     27
                      A                      A                      A
 Frequencies --    754.5433               859.1326               871.1666
 Red. masses --      5.4131                 3.2752                 3.0237
 Frc consts  --      1.8158                 1.4243                 1.3521
 IR Inten    --     33.2224                10.4703                40.3532

                     28                     29                     30
                      A                      A                      A
 Frequencies --    925.1225               979.1890              1024.0931
 Red. masses --      2.5930                 2.0291                 1.8077
 Frc consts  --      1.3076                 1.1463                 1.1170
 IR Inten    --      1.8245                17.0945                 4.5923

                     31                     32                     33
                      A                      A                      A
 Frequencies --   1056.7056              1079.6621              1092.4527
 Red. masses --      3.3183                 4.9608                 4.2547
 Frc consts  --      2.1831                 3.4070                 2.9918
 IR Inten    --      7.9065                 1.5598               268.4933

                     34                     35                     36
                      A                      A                      A
 Frequencies --   1107.6049              1131.5299              1134.1057
 Red. masses --      2.3101                 3.0054                 2.5593
 Frc consts  --      1.6698                 2.2671                 1.9395
 IR Inten    --     19.9119                14.9136                 2.1794

                     37                     38                     39
                      A                      A                      A
 Frequencies --   1146.0299              1179.1758              1220.2629
 Red. masses --      2.9441                 2.6299                 1.1286
 Frc consts  --      2.2782                 2.1545                 0.9902
 IR Inten    --    133.3883                89.8664                38.4651

                     40                     41                     42
                      A                      A                      A
 Frequencies --   1233.8185              1267.4044              1267.8320
 Red. masses --      1.2303                 1.2237                 1.1173
 Frc consts  --      1.1034                 1.1581                 1.0582
 IR Inten    --     48.7632                12.7603                77.7477

                     43                     44                     45
                      A                      A                      A
 Frequencies --   1282.8544              1292.5832              1310.7448
 Red. masses --      1.1415                 1.0780                 1.1334
 Frc consts  --      1.1068                 1.0612                 1.1473
 IR Inten    --      2.1193                11.5560                 3.9770

                     46                     47                     48
                      A                      A                      A
 Frequencies --   1320.6535              1361.8837              1383.1100
 Red. masses --      1.1667                 1.2285                 1.2163
 Frc consts  --      1.1989                 1.3425                 1.3709
 IR Inten    --     25.1559               106.9681                 9.2799

                     49                     50                     51
                      A                      A                      A
 Frequencies --   1401.9891              1404.0291              1415.6154
 Red. masses --      1.3233                 1.3604                 1.3940
 Frc consts  --      1.5325                 1.5800                 1.6459
 IR Inten    --     22.8894                 0.0790                47.0552

                     52                     53                     54
                      A                      A                      A
 Frequencies --   1424.8919              1432.1057              1476.5336
 Red. masses --      1.3943                 1.3789                 1.6050
 Frc consts  --      1.6679                 1.6663                 2.0617
 IR Inten    --      7.6313                15.9047                23.4050

                     55                     56                     57
                      A                      A                      A
 Frequencies --   1479.6557              1497.9975              1518.7682
 Red. masses --      1.6033                 2.0070                 1.0876
 Frc consts  --      2.0681                 2.6536                 1.4781
 IR Inten    --      0.3037                18.3244                 4.4538

                     58                     59                     60
                      A                      A                      A
 Frequencies --   1519.8184              2984.5061              2988.5413
 Red. masses --      1.0907                 1.0822                 1.0823
 Frc consts  --      1.4844                 5.6792                 5.6954
 IR Inten    --      7.0912                16.5972                26.8765

                     61                     62                     63
                      A                      A                      A
 Frequencies --   3019.7386              3024.0951              3064.2999
 Red. masses --      1.0842                 1.0848                 1.0595
 Frc consts  --      5.8253                 5.8453                 5.8617
 IR Inten    --     21.2535                81.1487                16.7723

                     64                     65                     66
                      A                      A                      A
 Frequencies --   3064.5720              3126.3443              3126.6703
 Red. masses --      1.0595                 1.1060                 1.1059
 Frc consts  --      5.8628                 6.3692                 6.3701
 IR Inten    --     27.2194                13.9003                31.5239

                     67                     68                     69
                      A                      A                      A
 Frequencies --   3852.4047              3853.1239              3856.6320
 Red. masses --      1.0651                 1.0654                 1.0651
 Frc consts  --      9.3135                 9.3190                 9.3339
 IR Inten    --    273.1414                 9.9875                51.8681

                     70                     71                     72
                      A                      A                      A
 Frequencies --   3856.8651              3949.8105              3949.9598
 Red. masses --      1.0653                 1.0668                 1.0668
 Frc consts  --      9.3364                 9.8060                 9.8071
 IR Inten    --      1.0535                68.1777                44.1309

 - Thermochemistry -
 -------------------
 Temperature   298.150 Kelvin.  Pressure   1.00000 Atm.
 Atom     1 has atomic number  6 and mass  12.00000

 Molecular mass:   182.07904 amu.
 Principal axes and moments of inertia in atomic units:
                           1         2         3
     Eigenvalues --   902.217314026.664554453.55864
           X            0.99997  -0.00748  -0.00000
           Y            0.00748   0.99997  -0.00000
           Z            0.00000   0.00000   1.00000
 This molecule is an asymmetric top.
 Rotational symmetry number  1.
 Warning -- assumption of classical behavior for rotation
           may cause significant error
 Rotational temperatures (Kelvin)      0.09600     0.02151     0.01945
 Rotational constants (GHZ):           2.00034     0.44820     0.40524
 Zero-point vibrational energy     583579.5 (Joules/Mol)
                                  139.47884 (Kcal/Mol)
 Warning -- explicit consideration of  22 degrees of freedom as
           vibrations may cause significant error
 Vibrational temperatures:     62.41   116.47   117.61   183.26   213.84
          (Kelvin)            226.13   273.30   365.17   367.57   379.29
                              395.38   404.62   467.46   470.56   494.09
                              531.75   668.77   677.47   717.94   736.51
                              777.21   805.64   988.60  1063.76  1085.62
                             1236.10  1253.41  1331.04  1408.83  1473.44
                             1520.36  1553.39  1571.80  1593.60  1628.02
                             1631.73  1648.88  1696.57  1755.69  1775.19
                             1823.51  1824.13  1845.74  1859.74  1885.87
                             1900.13  1959.45  1989.99  2017.15  2020.08
                             2036.75  2050.10  2060.48  2124.40  2128.89
                             2155.28  2185.17  2186.68  4294.04  4299.84
                             4344.73  4351.00  4408.84  4409.24  4498.11
                             4498.58  5542.75  5543.79  5548.83  5549.17
                             5682.90  5683.11

 Zero-point correction=                           0.222274 (Hartree/Particle)
 Thermal correction to Energy=                    0.236082
 Thermal correction to Enthalpy=                  0.237026
 Thermal correction to Gibbs Free Energy=         0.182309
 Sum of electronic and zero-point Energies=           -688.254690
 Sum of electronic and thermal Energies=              -688.240882
 Sum of electronic and thermal Enthalpies=            -688.239937
 Sum of electronic and thermal Free Energies=         -688.294655

                     E (Thermal)             CV                S
                      KCal/Mol        Cal/Mol-Kelvin    Cal/Mol-Kelvin
 Total                  148.144             51.098            115.163
 Electronic               0.000              0.000              0.000
 Translational            0.889              2.981             41.504
 Rotational               0.889              2.981             31.160
 Vibrational            146.366             45.136             42.499
 Vibration     1          0.595              1.980              5.098
 Vibration     2          0.600              1.962              3.868
 Vibration     3          0.600              1.962              3.849
 Vibration     4          0.611              1.926              2.985
 Vibration     5          0.618              1.904              2.690
 Vibration     6          0.621              1.895              2.584
 Vibration     7          0.633              1.854              2.228
 Vibration     8          0.665              1.756              1.704
 Vibration     9          0.666              1.754              1.692
 Vibration    10          0.670              1.740              1.638
 Vibration    11          0.677              1.720              1.566
 Vibration    12          0.681              1.708              1.526
 Vibration    13          0.709              1.626              1.285
 Vibration    14          0.711              1.621              1.275
 Vibration    15          0.722              1.589              1.196
 Vibration    16          0.742              1.535              1.082
 Vibration    17          0.822              1.328              0.752
 Vibration    18          0.828              1.315              0.735
 Vibration    19          0.854              1.252              0.661
 Vibration    20          0.867              1.224              0.629
 Vibration    21          0.895              1.161              0.565
 Vibration    22          0.916              1.118              0.524

 Optimization completed.
    -- Stationary point found.
 Normal termination of Gaussian 16 at Wed Sep 27 11:57:23 2023.
