 Gaussian 16, Revision C.01,
 Gaussian 16:  ES64L-G16RevC.01  3-Jul-2019

 ---------------------------------------------
 # opt freq wb97xd/Def2TZVPP geom=connectivity
 ---------------------------------------------

 -------------------
 Title Card Required
 -------------------
 Symbolic Z-matrix:
 Charge =  0 Multiplicity = 1

 SCF Done:  E(RwB97XD) =  -688.470108145     A.U. after   14 cycles
 SCF Done:  E(RwB97XD) =  -688.478735996     A.U. after   11 cycles
 SCF Done:  E(RwB97XD) =  -688.479510357     A.U. after   11 cycles
 SCF Done:  E(RwB97XD) =  -688.479599588     A.U. after   11 cycles
 SCF Done:  E(RwB97XD) =  -688.479641787     A.U. after   11 cycles
 SCF Done:  E(RwB97XD) =  -688.479722599     A.U. after   10 cycles
 SCF Done:  E(RwB97XD) =  -688.479740606     A.U. after   10 cycles
 SCF Done:  E(RwB97XD) =  -688.479750163     A.U. after    9 cycles
 SCF Done:  E(RwB97XD) =  -688.479754329     A.U. after    8 cycles
 SCF Done:  E(RwB97XD) =  -688.479758004     A.U. after    8 cycles
 SCF Done:  E(RwB97XD) =  -688.479758715     A.U. after    8 cycles
 SCF Done:  E(RwB97XD) =  -688.479759071     A.U. after    8 cycles
 SCF Done:  E(RwB97XD) =  -688.479759174     A.U. after    7 cycles
 Optimization completed.
    -- Stationary point found.
 Normal termination of Gaussian 16 at Wed Oct 11 15:40:12 2023.

 ----------------------------------------------------------------------
 #N Geom=AllCheck Guess=TCheck SCRF=Check GenChk RwB97XD/def2TZVPP Freq
 ----------------------------------------------------------------------

 Structure from the checkpoint file:  "MannitolConformerOpt_30.chk"
 -------------------
 Title Card Required
 -------------------
 Charge =  0 Multiplicity = 1

                         Standard orientation:
 ---------------------------------------------------------------------
 Center     Atomic      Atomic             Coordinates (Angstroms)
 Number     Number       Type             X           Y           Z
 ---------------------------------------------------------------------
      1          6           0       -0.534675    0.341590   -0.114210
      2          6           0        0.538354   -0.714916    0.150137
      3          6           0       -1.940125   -0.237213    0.048853
      4          6           0        1.892840   -0.408821   -0.483378
      5          1           0        0.197160   -1.663822   -0.270746
      6          1           0       -0.440516    0.691280   -1.146502
      7          6           0       -3.013194    0.816732   -0.177227
      8          1           0       -2.035344   -0.629529    1.072902
      9          6           0        2.470941    0.956969   -0.153931
     10          1           0        1.782784   -0.485163   -1.571996
     11          1           0       -2.884186    1.258785   -1.166630
     12          1           0       -2.936196    1.609257    0.568216
     13          1           0        2.491775    1.099222    0.930147
     14          1           0        1.860207    1.745465   -0.597417
     15          8           0       -4.301368    0.218632   -0.183238
     16          1           0       -4.554920    0.024970    0.718674
     17          8           0       -2.088378   -1.281009   -0.887742
     18          1           0       -3.031579   -1.421179   -0.999211
     19          8           0       -0.358269    1.456339    0.732322
     20          1           0       -0.046069    1.102294    1.570736
     21          8           0        0.659659   -0.826236    1.558282
     22          1           0        1.466773   -1.319903    1.722977
     23          8           0        2.766553   -1.421029   -0.014848
     24          1           0        3.660396   -1.121928   -0.197390
     25          8           0        3.788337    0.959400   -0.688849
     26          1           0        4.252599    1.735425   -0.382643
 ---------------------------------------------------------------------

 SCF Done:  E(RwB97XD) =  -688.479759174     A.U. after    1 cycles

 The electronic state is 1-A.
 Alpha  occ. eigenvalues --  -19.26643 -19.26183 -19.25774 -19.25569 -19.25139
 Alpha  occ. eigenvalues --  -19.24663 -10.33953 -10.33940 -10.33635 -10.33477
 Alpha  occ. eigenvalues --  -10.33125 -10.32902  -1.16317  -1.15050  -1.14425
 Alpha  occ. eigenvalues --   -1.12856  -1.11870  -1.11415  -0.88613  -0.85552
 Alpha  occ. eigenvalues --   -0.80727  -0.75390  -0.70412  -0.69307  -0.63931
 Alpha  occ. eigenvalues --   -0.62722  -0.60949  -0.60310  -0.59015  -0.57472
 Alpha  occ. eigenvalues --   -0.56728  -0.56241  -0.54620  -0.52705  -0.50641
 Alpha  occ. eigenvalues --   -0.49201  -0.48415  -0.46369  -0.45095  -0.44308
 Alpha  occ. eigenvalues --   -0.43585  -0.42483  -0.42109  -0.40047  -0.38090
 Alpha  occ. eigenvalues --   -0.37252  -0.36987  -0.35489  -0.35220
 Alpha virt. eigenvalues --    0.09508   0.09995   0.11567   0.12714   0.14124
 Alpha virt. eigenvalues --    0.15985   0.16427   0.17174   0.18349   0.19126
 Alpha virt. eigenvalues --    0.19895   0.20546   0.21258   0.21704   0.22793

 Mulliken charges:
               1
     1  C    0.164878
     2  C    0.090768
     3  C    0.072522
     4  C    0.137189
     5  H    0.107517
     6  H    0.070164
     7  C    0.051594
     8  H    0.048541
     9  C   -0.029078
    10  H    0.068082
    11  H    0.071518
    12  H    0.085470
    13  H    0.080145
    14  H    0.091517
    15  O   -0.350394
    16  H    0.172666
    17  O   -0.352992
    18  H    0.182212
    19  O   -0.392162
    20  H    0.192343
    21  O   -0.393118
    22  H    0.193376
    23  O   -0.382979
    24  H    0.194409
    25  O   -0.346294
    26  H    0.172108
 Sum of Mulliken charges =  -0.00000

 Dipole moment (field-independent basis, Debye):
    X=              1.1076    Y=              1.5273    Z=              1.6504  Tot=              2.5067
 Quadrupole moment (field-independent basis, Debye-Ang):
   XX=            -63.8536   YY=            -73.9857   ZZ=            -71.1951
   XY=              7.0732   XZ=             -2.7245   YZ=             -0.6969

  Exact polarizability:     113.638       0.649      88.833      -0.428       0.482      85.045
 Approx polarizability:     105.352       0.478     100.266       0.317       0.841     102.904

                      1                      2                      3
                      A                      A                      A
 Frequencies --     47.9391                60.7496                75.8717
 Red. masses --      5.6394                 4.8923                 5.4847
 Frc consts  --      0.0076                 0.0106                 0.0186
 IR Inten    --      1.3684                 2.3101                 1.8016

                      4                      5                      6
                      A                      A                      A
 Frequencies --    123.2472               125.6507               141.0149
 Red. masses --      2.9286                 3.4667                 4.5548
 Frc consts  --      0.0262                 0.0322                 0.0534
 IR Inten    --      5.3383                 9.7639                 1.1643

                      7                      8                      9
                      A                      A                      A
 Frequencies --    186.9646               238.7798               252.3290
 Red. masses --      4.9995                 4.6419                 1.4610
 Frc consts  --      0.1030                 0.1559                 0.0548
 IR Inten    --      6.6981                 5.5587                61.1634

                     10                     11                     12
                      A                      A                      A
 Frequencies --    256.4246               278.8852               297.6669
 Red. masses --      2.4471                 3.5129                 1.2424
 Frc consts  --      0.0948                 0.1610                 0.0649
 IR Inten    --     49.6964                 5.5799                67.1448

                     13                     14                     15
                      A                      A                      A
 Frequencies --    303.3971               317.8079               344.0402
 Red. masses --      3.9010                 5.2765                 4.3806
 Frc consts  --      0.2116                 0.3140                 0.3055
 IR Inten    --      7.0261                24.2586                 2.8828

                     16                     17                     18
                      A                      A                      A
 Frequencies --    438.1367               463.0801               467.5781
 Red. masses --      1.6287                 1.3666                 2.1871
 Frc consts  --      0.1842                 0.1727                 0.2817
 IR Inten    --     19.6340                83.4134                52.5258

                     19                     20                     21
                      A                      A                      A
 Frequencies --    482.2028               497.1928               508.0357
 Red. masses --      1.2963                 1.5579                 1.1451
 Frc consts  --      0.1776                 0.2269                 0.1741
 IR Inten    --    103.2034                76.9687               100.9618

                     22                     23                     24
                      A                      A                      A
 Frequencies --    537.8044               610.6331               701.6505
 Red. masses --      2.7136                 3.3066                 3.2880
 Frc consts  --      0.4624                 0.7264                 0.9537
 IR Inten    --     48.1950                31.9788                67.6642

                     25                     26                     27
                      A                      A                      A
 Frequencies --    758.2997               857.8055               906.8562
 Red. masses --      4.7573                 3.1438                 2.2101
 Frc consts  --      1.6117                 1.3630                 1.0709
 IR Inten    --     19.5591                18.5757                 9.7449

                     28                     29                     30
                      A                      A                      A
 Frequencies --    927.1133               996.4796              1030.6485
 Red. masses --      2.8275                 2.1810                 2.2291
 Frc consts  --      1.4319                 1.2760                 1.3951
 IR Inten    --     46.3251                16.6971                34.0464

                     31                     32                     33
                      A                      A                      A
 Frequencies --   1062.1382              1088.4986              1097.1346
 Red. masses --      2.7902                 4.2092                 3.4350
 Frc consts  --      1.8546                 2.9384                 2.4361
 IR Inten    --     11.2493               165.4223                32.8160

                     34                     35                     36
                      A                      A                      A
 Frequencies --   1107.4153              1116.1316              1135.5752
 Red. masses --      2.3152                 2.4684                 3.3891
 Frc consts  --      1.6728                 1.8118                 2.5749
 IR Inten    --     69.7345                13.9348               108.7309

                     37                     38                     39
                      A                      A                      A
 Frequencies --   1145.4260              1169.9589              1193.1072
 Red. masses --      3.0040                 2.5479                 1.2673
 Frc consts  --      2.3221                 2.0548                 1.0629
 IR Inten    --     81.4806                 6.3322                73.7667

                     40                     41                     42
                      A                      A                      A
 Frequencies --   1209.9893              1245.5563              1260.1548
 Red. masses --      1.1939                 1.2460                 1.2232
 Frc consts  --      1.0299                 1.1389                 1.1444
 IR Inten    --      9.1699                16.6874                28.6099

                     43                     44                     45
                      A                      A                      A
 Frequencies --   1275.5525              1282.9852              1325.1443
 Red. masses --      1.1709                 1.1075                 1.2351
 Frc consts  --      1.1224                 1.0740                 1.2779
 IR Inten    --     13.7654                33.0935                 0.1856

                     46                     47                     48
                      A                      A                      A
 Frequencies --   1340.2269              1360.2869              1382.6009
 Red. masses --      1.3232                 1.2210                 1.2246
 Frc consts  --      1.4003                 1.3312                 1.3792
 IR Inten    --     92.0367                19.8664                28.0802

                     49                     50                     51
                      A                      A                      A
 Frequencies --   1390.5024              1406.4892              1408.4424
 Red. masses --      1.2833                 1.3176                 1.3763
 Frc consts  --      1.4619                 1.5357                 1.6086
 IR Inten    --      5.4313                 9.4387                23.0448

                     52                     53                     54
                      A                      A                      A
 Frequencies --   1419.5386              1426.4977              1444.4120
 Red. masses --      1.2676                 1.3174                 1.7045
 Frc consts  --      1.5049                 1.5795                 2.0952
 IR Inten    --     13.9261                62.4837                23.8982

                     55                     56                     57
                      A                      A                      A
 Frequencies --   1472.3719              1477.4595              1506.1977
 Red. masses --      1.7458                 1.6634                 1.0849
 Frc consts  --      2.2299                 2.1393                 1.4501
 IR Inten    --      5.3194                12.5713                 3.0448

                     58                     59                     60
                      A                      A                      A
 Frequencies --   1511.5572              2979.2033              3022.5177
 Red. masses --      1.0992                 1.0824                 1.0837
 Frc consts  --      1.4797                 5.6605                 5.8331
 IR Inten    --      6.6926                35.2807                19.2558

                     61                     62                     63
                      A                      A                      A
 Frequencies --   3046.5743              3062.6258              3069.4521
 Red. masses --      1.0585                 1.0850                 1.0585
 Frc consts  --      5.7887                 5.9963                 5.8758
 IR Inten    --     28.4545                21.9759                27.3008

                     64                     65                     66
                      A                      A                      A
 Frequencies --   3077.5425              3104.1241              3125.8509
 Red. masses --      1.0851                 1.1068                 1.1091
 Frc consts  --      6.0554                 6.2833                 6.3852
 IR Inten    --     16.1417                30.4478                23.3096

                     67                     68                     69
                      A                      A                      A
 Frequencies --   3823.3098              3857.6511              3862.9754
 Red. masses --      1.0650                 1.0654                 1.0656
 Frc consts  --      9.1727                 9.3417                 9.3687
 IR Inten    --     79.1053               123.8951                80.7347

                     70                     71                     72
                      A                      A                      A
 Frequencies --   3863.4223              3914.0121              3946.0849
 Red. masses --      1.0656                 1.0664                 1.0668
 Frc consts  --      9.3707                 9.6251                 9.7876
 IR Inten    --     33.8255                36.5558                56.7606

 - Thermochemistry -
 -------------------
 Temperature   298.150 Kelvin.  Pressure   1.00000 Atm.
 Atom     1 has atomic number  6 and mass  12.00000

 Molecular mass:   182.07904 amu.
 Principal axes and moments of inertia in atomic units:
                           1         2         3
     Eigenvalues --   917.775694248.576564543.28021
           X            0.99999   0.00307  -0.00174
           Y           -0.00308   0.99999  -0.00453
           Z            0.00173   0.00454   0.99999
 This molecule is an asymmetric top.
 Rotational symmetry number  1.
 Warning -- assumption of classical behavior for rotation
           may cause significant error
 Rotational temperatures (Kelvin)      0.09437     0.02039     0.01906
 Rotational constants (GHZ):           1.96643     0.42479     0.39723
 Zero-point vibrational energy     581690.1 (Joules/Mol)
                                  139.02726 (Kcal/Mol)
 Warning -- explicit consideration of  23 degrees of freedom as
           vibrations may cause significant error
 Vibrational temperatures:     68.97    87.41   109.16   177.33   180.78
          (Kelvin)            202.89   269.00   343.55   363.05   368.94
                              401.25   428.28   436.52   457.25   495.00
                              630.38   666.27   672.74   693.78   715.35
                              730.95   773.78   878.56  1009.52  1091.02
                             1234.19  1304.76  1333.91  1433.71  1482.87
                             1528.18  1566.11  1578.53  1593.32  1605.86
                             1633.84  1648.01  1683.31  1716.62  1740.90
                             1792.08  1813.08  1835.24  1845.93  1906.59
                             1928.29  1957.15  1989.25  2000.62  2023.62
                             2026.43  2042.40  2052.41  2078.19  2118.41
                             2125.73  2167.08  2174.79  4286.41  4348.73
                             4383.34  4406.44  4416.26  4427.90  4466.14
                             4497.40  5500.89  5550.30  5557.96  5558.60
                             5631.39  5677.54

 Zero-point correction=                           0.221554 (Hartree/Particle)
 Thermal correction to Energy=                    0.235575
 Thermal correction to Enthalpy=                  0.236519
 Thermal correction to Gibbs Free Energy=         0.181071
 Sum of electronic and zero-point Energies=           -688.258205
 Sum of electronic and thermal Energies=              -688.244184
 Sum of electronic and thermal Enthalpies=            -688.243240
 Sum of electronic and thermal Free Energies=         -688.298688

                     E (Thermal)             CV                S
                      KCal/Mol        Cal/Mol-Kelvin    Cal/Mol-Kelvin
 Total                  147.825             51.494            116.700
 Electronic               0.000              0.000              0.000
 Translational            0.889              2.981             41.504
 Rotational               0.889              2.981             31.250
 Vibrational            146.048             45.532             43.946
 Vibration     1          0.595              1.978              4.901
 Vibration     2          0.597              1.973              4.433
 Vibration     3          0.599              1.965              3.995
 Vibration     4          0.610              1.930              3.049
 Vibration     5          0.611              1.927              3.012
 Vibration     6          0.615              1.912              2.790
 Vibration     7          0.632              1.858              2.258
 Vibration     8          0.657              1.781              1.812
 Vibration     9          0.664              1.759              1.714
 Vibration    10          0.666              1.752              1.686
 Vibration    11          0.679              1.713              1.540
 Vibration    12          0.691              1.678              1.430
 Vibration    13          0.695              1.667              1.398
 Vibration    14          0.704              1.640              1.321
 Vibration    15          0.723              1.587              1.193
 Vibration    16          0.798              1.387              0.832
 Vibration    17          0.821              1.332              0.757
 Vibration    18          0.825              1.322              0.744
 Vibration    19          0.838              1.290              0.704
 Vibration    20          0.853              1.256              0.665
 Vibration    21          0.863              1.232              0.638
 Vibration    22          0.893              1.166              0.570
 Vibration    23          0.970              1.009              0.432

 Optimization completed.
    -- Stationary point found.
 Normal termination of Gaussian 16 at Wed Oct 11 16:52:30 2023.
