 Gaussian 16, Revision C.01,
 Gaussian 16:  ES64L-G16RevC.01  3-Jul-2019

 ---------------------------------------------
 # opt freq wb97xd/def2tzvpp geom=connectivity
 ---------------------------------------------

 --------------------------------
 Mannitol Conformer Optimziations
 --------------------------------
 Symbolic Z-matrix:
 Charge =  0 Multiplicity = 1

 SCF Done:  E(RwB97XD) =  -688.470160249     A.U. after   13 cycles
 SCF Done:  E(RwB97XD) =  -688.478395037     A.U. after   12 cycles
 SCF Done:  E(RwB97XD) =  -688.478260284     A.U. after   11 cycles
 SCF Done:  E(RwB97XD) =  -688.478953665     A.U. after   12 cycles
 SCF Done:  E(RwB97XD) =  -688.479343648     A.U. after   11 cycles
 SCF Done:  E(RwB97XD) =  -688.479585410     A.U. after   11 cycles
 SCF Done:  E(RwB97XD) =  -688.479635816     A.U. after   11 cycles
 SCF Done:  E(RwB97XD) =  -688.479686084     A.U. after   10 cycles
 SCF Done:  E(RwB97XD) =  -688.479704890     A.U. after   10 cycles
 SCF Done:  E(RwB97XD) =  -688.479709648     A.U. after    8 cycles
 SCF Done:  E(RwB97XD) =  -688.479713663     A.U. after    8 cycles
 SCF Done:  E(RwB97XD) =  -688.479714951     A.U. after    8 cycles
 SCF Done:  E(RwB97XD) =  -688.479715500     A.U. after    7 cycles
 SCF Done:  E(RwB97XD) =  -688.479715627     A.U. after    7 cycles
 Optimization completed.
    -- Stationary point found.
 Normal termination of Gaussian 16 at Wed Sep 27 11:46:13 2023.

 ----------------------------------------------------------------------
 #N Geom=AllCheck Guess=TCheck SCRF=Check GenChk RwB97XD/def2TZVPP Freq
 ----------------------------------------------------------------------

 Structure from the checkpoint file:  "MannitolConformerOpt_25.chk"
 --------------------------------
 Mannitol Conformer Optimziations
 --------------------------------
 Charge =  0 Multiplicity = 1

                         Standard orientation:
 ---------------------------------------------------------------------
 Center     Atomic      Atomic             Coordinates (Angstroms)
 Number     Number       Type             X           Y           Z
 ---------------------------------------------------------------------
      1          6           0       -0.677281    0.460386   -0.660400
      2          6           0        0.185935   -0.453484    0.203838
      3          6           0       -2.120514    0.576424   -0.139272
      4          6           0        1.625288   -0.652726   -0.265165
      5          1           0       -0.266051   -1.451288    0.164557
      6          1           0       -0.705470    0.020255   -1.658772
      7          6           0       -2.818037   -0.757477    0.109664
      8          1           0       -2.679893    1.132418   -0.897299
      9          6           0        2.475530    0.604529   -0.361865
     10          1           0        1.602305   -1.139950   -1.247511
     11          1           0       -3.845358   -0.555695    0.426612
     12          1           0       -2.326291   -1.285814    0.927777
     13          1           0        2.367806    1.195286    0.551729
     14          1           0        2.159877    1.210207   -1.209710
     15          8           0       -2.773576   -1.618089   -1.010325
     16          1           0       -3.348644   -1.272001   -1.691495
     17          8           0       -2.165162    1.380256    1.023813
     18          1           0       -1.561783    0.983013    1.662570
     19          8           0       -0.150899    1.762152   -0.793013
     20          1           0       -0.475886    2.265682   -0.041533
     21          8           0        0.165660    0.019354    1.543335
     22          1           0        0.818760   -0.497302    2.022674
     23          8           0        2.192175   -1.532476    0.693121
     24          1           0        3.145617   -1.456003    0.603033
     25          8           0        3.816609    0.150282   -0.518134
     26          1           0        4.411029    0.893448   -0.443793
 ---------------------------------------------------------------------

 SCF Done:  E(RwB97XD) =  -688.479715627     A.U. after    1 cycles

 The electronic state is 1-A.
 Alpha  occ. eigenvalues --  -19.26376 -19.26300 -19.25981 -19.25412 -19.25124
 Alpha  occ. eigenvalues --  -19.24793 -10.34001 -10.33978 -10.33869 -10.33802
 Alpha  occ. eigenvalues --  -10.33256 -10.32975  -1.16404  -1.15059  -1.13816
 Alpha  occ. eigenvalues --   -1.13297  -1.11670  -1.11616  -0.88770  -0.85270
 Alpha  occ. eigenvalues --   -0.80504  -0.75844  -0.72075  -0.68203  -0.64001
 Alpha  occ. eigenvalues --   -0.62420  -0.61085  -0.60600  -0.60018  -0.57349
 Alpha  occ. eigenvalues --   -0.56862  -0.55086  -0.53361  -0.52786  -0.51280
 Alpha  occ. eigenvalues --   -0.49512  -0.47739  -0.47541  -0.45648  -0.44726
 Alpha  occ. eigenvalues --   -0.43957  -0.43270  -0.40458  -0.39942  -0.38058
 Alpha  occ. eigenvalues --   -0.37084  -0.37020  -0.36215  -0.34913
 Alpha virt. eigenvalues --    0.09545   0.09735   0.11387   0.13696   0.13824
 Alpha virt. eigenvalues --    0.15423   0.16086   0.17832   0.18412   0.18815
 Alpha virt. eigenvalues --    0.20378   0.21149   0.21503   0.21956   0.23419

 Mulliken charges:
               1
     1  C    0.188470
     2  C    0.082832
     3  C    0.116926
     4  C    0.112523
     5  H    0.106304
     6  H    0.068754
     7  C   -0.013608
     8  H    0.074465
     9  C   -0.015729
    10  H    0.065122
    11  H    0.095951
    12  H    0.071843
    13  H    0.082572
    14  H    0.093631
    15  O   -0.337282
    16  H    0.165350
    17  O   -0.394388
    18  H    0.202077
    19  O   -0.378134
    20  H    0.188853
    21  O   -0.388972
    22  H    0.179784
    23  O   -0.388504
    24  H    0.197979
    25  O   -0.348667
    26  H    0.171848
 Sum of Mulliken charges =   0.00000

 Dipole moment (field-independent basis, Debye):
    X=              0.7941    Y=              0.7570    Z=             -0.2986  Tot=              1.1371
 Quadrupole moment (field-independent basis, Debye-Ang):
   XX=            -61.1001   YY=            -78.9350   ZZ=            -69.6905
   XY=              6.5425   XZ=              6.2373   YZ=             -0.3405

  Exact polarizability:     109.659       0.704      89.139       0.390       0.155      86.817
 Approx polarizability:     103.683      -1.237     101.466       1.461       1.180     103.552

                      1                      2                      3
                      A                      A                      A
 Frequencies --     42.0469                69.4955                99.6159
 Red. masses --      5.3947                 5.5916                 5.3245
 Frc consts  --      0.0056                 0.0159                 0.0311
 IR Inten    --      1.8430                 2.0376                 5.5144

                      4                      5                      6
                      A                      A                      A
 Frequencies --    125.0598               152.7740               162.1481
 Red. masses --      3.5118                 4.0142                 4.8400
 Frc consts  --      0.0324                 0.0552                 0.0750
 IR Inten    --      2.6111                 0.7882                 8.9381

                      7                      8                      9
                      A                      A                      A
 Frequencies --    214.1401               231.7756               241.0302
 Red. masses --      2.9054                 4.6404                 1.1620
 Frc consts  --      0.0785                 0.1469                 0.0398
 IR Inten    --      9.1120                 4.6847               104.3638

                     10                     11                     12
                      A                      A                      A
 Frequencies --    267.0389               283.2258               292.0540
 Red. masses --      1.4629                 3.3946                 4.4647
 Frc consts  --      0.0615                 0.1604                 0.2244
 IR Inten    --     41.1770                30.5745                 4.2623

                     13                     14                     15
                      A                      A                      A
 Frequencies --    298.0373               326.6669               362.2014
 Red. masses --      2.9724                 4.0169                 5.3614
 Frc consts  --      0.1556                 0.2526                 0.4144
 IR Inten    --     66.6195                 8.5378                 6.6624

                     16                     17                     18
                      A                      A                      A
 Frequencies --    433.6942               466.0060               484.2449
 Red. masses --      1.2340                 4.5353                 1.1212
 Frc consts  --      0.1368                 0.5803                 0.1549
 IR Inten    --     64.6043                 3.7822                77.6500

                     19                     20                     21
                      A                      A                      A
 Frequencies --    501.5079               529.9455               554.8357
 Red. masses --      1.9405                 1.4363                 3.0755
 Frc consts  --      0.2876                 0.2377                 0.5578
 IR Inten    --     34.2929                79.8824                29.2640

                     22                     23                     24
                      A                      A                      A
 Frequencies --    572.1467               630.0967               734.9481
 Red. masses --      3.1810                 1.1574                 3.5349
 Frc consts  --      0.6135                 0.2707                 1.1250
 IR Inten    --      8.0150               221.0200                24.5135

                     25                     26                     27
                      A                      A                      A
 Frequencies --    793.5543               832.7290               862.3977
 Red. masses --      3.9072                 4.1624                 2.7380
 Frc consts  --      1.4497                 1.7006                 1.1998
 IR Inten    --     19.5154                22.2206                10.0889

                     28                     29                     30
                      A                      A                      A
 Frequencies --    925.2385              1004.3507              1017.5236
 Red. masses --      2.1939                 1.8487                 1.9136
 Frc consts  --      1.1066                 1.0987                 1.1673
 IR Inten    --     14.5234                19.3153                20.6378

                     31                     32                     33
                      A                      A                      A
 Frequencies --   1074.0805              1076.8653              1097.3449
 Red. masses --      3.7380                 3.3112                 3.2961
 Frc consts  --      2.5408                 2.2624                 2.3385
 IR Inten    --     80.2479                29.7941                95.6569

                     34                     35                     36
                      A                      A                      A
 Frequencies --   1107.2311              1124.2739              1133.4070
 Red. masses --      3.1287                 2.5289                 2.6731
 Frc consts  --      2.2599                 1.8833                 2.0232
 IR Inten    --     51.9972                39.3643                54.0657

                     37                     38                     39
                      A                      A                      A
 Frequencies --   1147.9123              1163.4640              1195.0459
 Red. masses --      2.8956                 2.9970                 1.1993
 Frc consts  --      2.2480                 2.3902                 1.0091
 IR Inten    --     91.2733                20.1625                49.9210

                     40                     41                     42
                      A                      A                      A
 Frequencies --   1227.9752              1256.8233              1258.8394
 Red. masses --      1.2567                 1.2016                 1.2041
 Frc consts  --      1.1165                 1.1183                 1.1242
 IR Inten    --     94.7781                48.4388                20.3499

                     43                     44                     45
                      A                      A                      A
 Frequencies --   1278.4920              1304.4343              1314.0020
 Red. masses --      1.1551                 1.2032                 1.3110
 Frc consts  --      1.1124                 1.2062                 1.3337
 IR Inten    --     17.4163                30.4533                12.1701

                     46                     47                     48
                      A                      A                      A
 Frequencies --   1363.3189              1373.7664              1386.7681
 Red. masses --      1.2054                 1.2418                 1.3149
 Frc consts  --      1.3200                 1.3808                 1.4899
 IR Inten    --      2.3046                15.6163                11.1336

                     49                     50                     51
                      A                      A                      A
 Frequencies --   1393.9435              1413.8494              1424.4634
 Red. masses --      1.3204                 1.3634                 1.3019
 Frc consts  --      1.5116                 1.6058                 1.5564
 IR Inten    --     15.6038                 6.2985                12.5007

                     52                     53                     54
                      A                      A                      A
 Frequencies --   1426.6581              1434.9679              1457.7629
 Red. masses --      1.3319                 1.3145                 1.8688
 Frc consts  --      1.5972                 1.5947                 2.3399
 IR Inten    --     28.5454                37.6953                 8.6330

                     55                     56                     57
                      A                      A                      A
 Frequencies --   1470.7166              1477.7151              1518.9656
 Red. masses --      1.2586                 1.5603                 1.0948
 Frc consts  --      1.6039                 2.0075                 1.4883
 IR Inten    --     82.9948                22.1159                 5.4505

                     58                     59                     60
                      A                      A                      A
 Frequencies --   1522.1159              3020.4476              3037.3579
 Red. masses --      1.0836                 1.0833                 1.0836
 Frc consts  --      1.4792                 5.8227                 5.8902
 IR Inten    --     12.1905                15.9047                30.3190

                     61                     62                     63
                      A                      A                      A
 Frequencies --   3047.6421              3053.9470              3056.2823
 Red. masses --      1.0687                 1.0813                 1.0637
 Frc consts  --      5.8482                 5.9420                 5.8541
 IR Inten    --     40.9005                25.4493                29.7870

                     64                     65                     66
                      A                      A                      A
 Frequencies --   3094.2157              3112.9186              3133.3001
 Red. masses --      1.0858                 1.1017                 1.1018
 Frc consts  --      6.1251                 6.2900                 6.3733
 IR Inten    --     20.4594                33.3936                18.7423

                     67                     68                     69
                      A                      A                      A
 Frequencies --   3792.7019              3840.3079              3851.3527
 Red. masses --      1.0655                 1.0653                 1.0652
 Frc consts  --      9.0306                 9.2565                 9.3089
 IR Inten    --    146.3839                77.3535               120.8184

                     70                     71                     72
                      A                      A                      A
 Frequencies --   3855.5266              3919.1464              3948.6303
 Red. masses --      1.0653                 1.0665                 1.0669
 Frc consts  --      9.3297                 9.6512                 9.8005
 IR Inten    --     38.3879                36.1298                57.6136

 - Thermochemistry -
 -------------------
 Temperature   298.150 Kelvin.  Pressure   1.00000 Atm.
 Atom     1 has atomic number  6 and mass  12.00000

 Molecular mass:   182.07904 amu.
 Principal axes and moments of inertia in atomic units:
                           1         2         3
     Eigenvalues --  1164.052253480.467553786.65415
           X            0.99995   0.01022   0.00144
           Y           -0.01021   0.99992  -0.00783
           Z           -0.00152   0.00782   0.99997
 This molecule is an asymmetric top.
 Rotational symmetry number  1.
 Warning -- assumption of classical behavior for rotation
           may cause significant error
 Rotational temperatures (Kelvin)      0.07441     0.02489     0.02287
 Rotational constants (GHZ):           1.55040     0.51853     0.47661
 Zero-point vibrational energy     584372.8 (Joules/Mol)
                                  139.66846 (Kcal/Mol)
 Warning -- explicit consideration of  22 degrees of freedom as
           vibrations may cause significant error
 Vibrational temperatures:     60.50    99.99   143.33   179.93   219.81
          (Kelvin)            233.29   308.10   333.47   346.79   384.21
                              407.50   420.20   428.81   470.00   521.13
                              623.99   670.48   696.72   721.56   762.47
                              798.28   823.19   906.57  1057.43  1141.75
                             1198.11  1240.80  1331.21  1445.04  1463.99
                             1545.36  1549.37  1578.83  1593.06  1617.58
                             1630.72  1651.59  1673.97  1719.40  1766.78
                             1808.29  1811.19  1839.46  1876.79  1890.56
                             1961.51  1976.54  1995.25  2005.57  2034.21
                             2049.49  2052.64  2064.60  2097.40  2116.03
                             2126.10  2185.45  2189.99  4345.75  4370.08
                             4384.88  4393.95  4397.31  4451.89  4478.80
                             4508.12  5456.85  5525.35  5541.24  5547.24
                             5638.78  5681.20

 Zero-point correction=                           0.222576 (Hartree/Particle)
 Thermal correction to Energy=                    0.236277
 Thermal correction to Enthalpy=                  0.237221
 Thermal correction to Gibbs Free Energy=         0.182741
 Sum of electronic and zero-point Energies=           -688.257140
 Sum of electronic and thermal Energies=              -688.243438
 Sum of electronic and thermal Enthalpies=            -688.242494
 Sum of electronic and thermal Free Energies=         -688.296975

                     E (Thermal)             CV                S
                      KCal/Mol        Cal/Mol-Kelvin    Cal/Mol-Kelvin
 Total                  148.266             50.903            114.664
 Electronic               0.000              0.000              0.000
 Translational            0.889              2.981             41.504
 Rotational               0.889              2.981             31.107
 Vibrational            146.489             44.941             42.053
 Vibration     1          0.595              1.980              5.160
 Vibration     2          0.598              1.969              4.168
 Vibration     3          0.604              1.949              3.462
 Vibration     4          0.610              1.928              3.021
 Vibration     5          0.619              1.900              2.637
 Vibration     6          0.622              1.889              2.525
 Vibration     7          0.644              1.819              2.008
 Vibration     8          0.653              1.792              1.865
 Vibration     9          0.658              1.778              1.795
 Vibration    10          0.672              1.734              1.615
 Vibration    11          0.682              1.705              1.514
 Vibration    12          0.687              1.689              1.462
 Vibration    13          0.691              1.677              1.428
 Vibration    14          0.710              1.622              1.277
 Vibration    15          0.736              1.550              1.113
 Vibration    16          0.794              1.397              0.847
 Vibration    17          0.823              1.325              0.749
 Vibration    18          0.840              1.285              0.699
 Vibration    19          0.857              1.247              0.654
 Vibration    20          0.885              1.184              0.587
 Vibration    21          0.910              1.129              0.534
 Vibration    22          0.928              1.091              0.500

 Optimization completed.
    -- Stationary point found.
 Normal termination of Gaussian 16 at Wed Sep 27 12:19:07 2023.
