 Gaussian 16, Revision C.01,
 Gaussian 16:  ES64L-G16RevC.01  3-Jul-2019

 ---------------------------------------------
 # opt freq wb97xd/Def2TZVPP geom=connectivity
 ---------------------------------------------

 -------------------
 Title Card Required
 -------------------
 Symbolic Z-matrix:
 Charge =  0 Multiplicity = 1

 SCF Done:  E(RwB97XD) =  -688.469650455     A.U. after   14 cycles
 SCF Done:  E(RwB97XD) =  -688.477579874     A.U. after   11 cycles
 SCF Done:  E(RwB97XD) =  -688.478190953     A.U. after   11 cycles
 SCF Done:  E(RwB97XD) =  -688.478277755     A.U. after   12 cycles
 SCF Done:  E(RwB97XD) =  -688.478647320     A.U. after   11 cycles
 SCF Done:  E(RwB97XD) =  -688.478717201     A.U. after   10 cycles
 SCF Done:  E(RwB97XD) =  -688.478747340     A.U. after   10 cycles
 SCF Done:  E(RwB97XD) =  -688.478769734     A.U. after    9 cycles
 SCF Done:  E(RwB97XD) =  -688.478786707     A.U. after    9 cycles
 SCF Done:  E(RwB97XD) =  -688.478800266     A.U. after   10 cycles
 SCF Done:  E(RwB97XD) =  -688.478804728     A.U. after    9 cycles
 SCF Done:  E(RwB97XD) =  -688.478810866     A.U. after    9 cycles
 SCF Done:  E(RwB97XD) =  -688.478813816     A.U. after    8 cycles
 SCF Done:  E(RwB97XD) =  -688.478814712     A.U. after    8 cycles
 SCF Done:  E(RwB97XD) =  -688.478814925     A.U. after    7 cycles
 Optimization completed.
    -- Stationary point found.
 Normal termination of Gaussian 16 at Wed Oct 11 14:59:24 2023.

 ----------------------------------------------------------------------
 #N Geom=AllCheck Guess=TCheck SCRF=Check GenChk RwB97XD/def2TZVPP Freq
 ----------------------------------------------------------------------

 Structure from the checkpoint file:  "MannitolConformerOpt_38.chk"
 -------------------
 Title Card Required
 -------------------
 Charge =  0 Multiplicity = 1

                         Standard orientation:
 ---------------------------------------------------------------------
 Center     Atomic      Atomic             Coordinates (Angstroms)
 Number     Number       Type             X           Y           Z
 ---------------------------------------------------------------------
      1          6           0       -0.740673    0.784064   -0.484358
      2          6           0        0.657146    0.679181    0.122417
      3          6           0       -1.546033   -0.505144   -0.684980
      4          6           0        1.643143   -0.112712   -0.743343
      5          1           0        0.592800    0.200221    1.107517
      6          1           0       -0.639284    1.264773   -1.464544
      7          6           0       -1.723970   -1.348967    0.573130
      8          1           0       -1.043635   -1.110853   -1.437093
      9          6           0        3.061879   -0.026242   -0.206739
     10          1           0        1.632259    0.312423   -1.750045
     11          1           0       -0.755349   -1.559069    1.031705
     12          1           0       -2.175303   -2.302135    0.297727
     13          1           0        3.334563    1.015219   -0.033985
     14          1           0        3.739474   -0.466887   -0.944406
     15          8           0       -2.617455   -0.742135    1.489347
     16          1           0       -2.270809    0.130991    1.692326
     17          8           0       -2.821482   -0.132798   -1.188416
     18          1           0       -3.442170   -0.232222   -0.461224
     19          8           0       -1.452493    1.670180    0.386163
     20          1           0       -2.281456    1.875996   -0.049793
     21          8           0        1.185691    1.982288    0.257029
     22          1           0        0.476622    2.535267    0.591606
     23          8           0        1.262517   -1.467919   -0.853068
     24          1           0        1.639787   -1.918357   -0.092720
     25          8           0        3.081974   -0.778368    0.998796
     26          1           0        3.973541   -0.816429    1.337363
 ---------------------------------------------------------------------

 SCF Done:  E(RwB97XD) =  -688.478814925     A.U. after    1 cycles

 The electronic state is 1-A.
 Alpha  occ. eigenvalues --  -19.27195 -19.26782 -19.25495 -19.25289 -19.25084
 Alpha  occ. eigenvalues --  -19.25031 -10.34297 -10.34202 -10.33928 -10.33605
 Alpha  occ. eigenvalues --  -10.33360 -10.33034  -1.16639  -1.15608  -1.14040
 Alpha  occ. eigenvalues --   -1.12707  -1.12216  -1.11452  -0.88796  -0.85521
 Alpha  occ. eigenvalues --   -0.80628  -0.75528  -0.71677  -0.68934  -0.64263
 Alpha  occ. eigenvalues --   -0.63127  -0.61145  -0.60262  -0.58737  -0.57905
 Alpha  occ. eigenvalues --   -0.57024  -0.56334  -0.53520  -0.52617  -0.51118
 Alpha  occ. eigenvalues --   -0.50090  -0.48005  -0.46437  -0.45870  -0.45263
 Alpha  occ. eigenvalues --   -0.44172  -0.42516  -0.42300  -0.39084  -0.38455
 Alpha  occ. eigenvalues --   -0.37774  -0.37029  -0.35685  -0.35296
 Alpha virt. eigenvalues --    0.09409   0.09535   0.12389   0.13503   0.14865
 Alpha virt. eigenvalues --    0.15287   0.16033   0.16674   0.18410   0.19073
 Alpha virt. eigenvalues --    0.19506   0.20389   0.20835   0.21502   0.21958

 Mulliken charges:
               1
     1  C    0.065810
     2  C    0.099533
     3  C    0.161790
     4  C    0.202527
     5  H    0.074977
     6  H    0.100530
     7  C   -0.001297
     8  H    0.077755
     9  C   -0.065635
    10  H    0.072029
    11  H    0.067413
    12  H    0.094313
    13  H    0.104638
    14  H    0.099673
    15  O   -0.377462
    16  H    0.192975
    17  O   -0.389698
    18  H    0.190313
    19  O   -0.401128
    20  H    0.182994
    21  O   -0.362717
    22  H    0.184652
    23  O   -0.385063
    24  H    0.189061
    25  O   -0.341242
    26  H    0.163260
 Sum of Mulliken charges =  -0.00000

 Dipole moment (field-independent basis, Debye):
    X=              2.3752    Y=              0.5184    Z=              0.4913  Tot=              2.4803
 Quadrupole moment (field-independent basis, Debye-Ang):
   XX=            -63.4066   YY=            -71.6369   ZZ=            -76.5364
   XY=             -6.4509   XZ=              1.6129   YZ=             -1.0462

  Exact polarizability:     107.633       0.001      91.929      -0.274      -1.011      85.114
 Approx polarizability:     105.342      -0.652     102.975      -0.350      -0.621     100.666

                      1                      2                      3
                      A                      A                      A
 Frequencies --     36.9687                76.8096                97.6061
 Red. masses --      5.4075                 5.2471                 5.0612
 Frc consts  --      0.0044                 0.0182                 0.0284
 IR Inten    --      1.1038                 0.2641                 6.4791

                      4                      5                      6
                      A                      A                      A
 Frequencies --    115.6523               152.8173               166.7442
 Red. masses --      5.5144                 6.0580                 4.7377
 Frc consts  --      0.0435                 0.0834                 0.0776
 IR Inten    --      3.1242                 5.5296                 2.1132

                      7                      8                      9
                      A                      A                      A
 Frequencies --    208.7309               234.7896               250.7549
 Red. masses --      1.1622                 3.6351                 4.5227
 Frc consts  --      0.0298                 0.1181                 0.1676
 IR Inten    --    110.8540                 7.9925                 3.8280

                     10                     11                     12
                      A                      A                      A
 Frequencies --    271.6883               297.2285               321.0932
 Red. masses --      5.3076                 2.9241                 3.4295
 Frc consts  --      0.2308                 0.1522                 0.2083
 IR Inten    --     15.7964                25.8141                 2.3932

                     13                     14                     15
                      A                      A                      A
 Frequencies --    344.0337               368.4706               394.2624
 Red. masses --      3.5606                 3.2112                 1.3668
 Frc consts  --      0.2483                 0.2569                 0.1252
 IR Inten    --      4.3019                 3.5495               145.2283

                     16                     17                     18
                      A                      A                      A
 Frequencies --    434.8640               444.1821               469.2965
 Red. masses --      1.4989                 1.7264                 1.1051
 Frc consts  --      0.1670                 0.2007                 0.1434
 IR Inten    --     20.8467                 2.6587               145.5424

                     19                     20                     21
                      A                      A                      A
 Frequencies --    479.1085               528.2396               538.5277
 Red. masses --      1.2667                 4.9468                 3.1880
 Frc consts  --      0.1713                 0.8133                 0.5447
 IR Inten    --    159.8652                 2.8407                58.1721

                     22                     23                     24
                      A                      A                      A
 Frequencies --    567.4741               660.7061               690.6092
 Red. masses --      3.0349                 1.1002                 3.3397
 Frc consts  --      0.5758                 0.2830                 0.9385
 IR Inten    --     19.0882                19.8589                21.2406

                     25                     26                     27
                      A                      A                      A
 Frequencies --    802.9312               840.7261               900.2915
 Red. masses --      4.1740                 3.4402                 3.1975
 Frc consts  --      1.5855                 1.4326                 1.5270
 IR Inten    --     12.9393                21.6962                37.9337

                     28                     29                     30
                      A                      A                      A
 Frequencies --    964.9176               986.4145               989.3246
 Red. masses --      2.0330                 2.6013                 2.1369
 Frc consts  --      1.1152                 1.4913                 1.2323
 IR Inten    --     11.3496                 4.0102                17.4977

                     31                     32                     33
                      A                      A                      A
 Frequencies --   1051.6713              1067.0533              1104.3451
 Red. masses --      2.6978                 3.2037                 2.9413
 Frc consts  --      1.7580                 2.1492                 2.1135
 IR Inten    --     25.2197                49.7943               157.2273

                     34                     35                     36
                      A                      A                      A
 Frequencies --   1106.4267              1127.4163              1133.0915
 Red. masses --      3.9899                 3.4241                 2.7427
 Frc consts  --      2.8778                 2.5643                 2.0747
 IR Inten    --     74.3915               146.2432                68.7679

                     37                     38                     39
                      A                      A                      A
 Frequencies --   1152.8299              1165.4175              1194.5178
 Red. masses --      2.2603                 2.8550                 1.0940
 Frc consts  --      1.7699                 2.2846                 0.9197
 IR Inten    --     23.4983                 5.9318                33.5864

                     40                     41                     42
                      A                      A                      A
 Frequencies --   1217.7010              1237.4200              1262.4719
 Red. masses --      1.2085                 1.1190                 1.2479
 Frc consts  --      1.0558                 1.0095                 1.1719
 IR Inten    --     13.4792                36.8756                 5.1551

                     43                     44                     45
                      A                      A                      A
 Frequencies --   1278.6471              1296.1727              1336.7741
 Red. masses --      1.2046                 1.1358                 1.3775
 Frc consts  --      1.1604                 1.1243                 1.4503
 IR Inten    --     29.8616                23.6528                47.7400

                     46                     47                     48
                      A                      A                      A
 Frequencies --   1349.2069              1364.7970              1379.5415
 Red. masses --      1.3036                 1.2955                 1.3122
 Frc consts  --      1.3982                 1.4217                 1.4714
 IR Inten    --     39.0064                25.4047                 3.2853

                     49                     50                     51
                      A                      A                      A
 Frequencies --   1390.2039              1391.4665              1424.7733
 Red. masses --      1.2793                 1.2888                 1.2649
 Frc consts  --      1.4568                 1.4703                 1.5128
 IR Inten    --     13.5486                 7.9186                63.7403

                     52                     53                     54
                      A                      A                      A
 Frequencies --   1429.6433              1445.9747              1452.2977
 Red. masses --      1.2882                 1.4597                 1.4755
 Frc consts  --      1.5513                 1.7982                 1.8336
 IR Inten    --     39.9811                 4.9689                12.8450

                     55                     56                     57
                      A                      A                      A
 Frequencies --   1457.9973              1469.1028              1519.8766
 Red. masses --      1.3648                 1.7501                 1.0831
 Frc consts  --      1.7093                 2.2254                 1.4742
 IR Inten    --     46.5951                 1.8826                14.3840

                     58                     59                     60
                      A                      A                      A
 Frequencies --   1522.7507              3017.1353              3032.3183
 Red. masses --      1.0812                 1.0816                 1.0851
 Frc consts  --      1.4772                 5.8011                 5.8786
 IR Inten    --      8.0346                 5.2145                53.8469

                     61                     62                     63
                      A                      A                      A
 Frequencies --   3039.4001              3070.5453              3077.2348
 Red. masses --      1.0651                 1.0613                 1.0851
 Frc consts  --      5.7972                 5.8955                 6.0541
 IR Inten    --     32.4662                29.8247                46.7972

                     64                     65                     66
                      A                      A                      A
 Frequencies --   3116.2773              3120.5721              3130.5709
 Red. masses --      1.1003                 1.1041                 1.0878
 Frc consts  --      6.2957                 6.3346                 6.2811
 IR Inten    --     14.3654                25.4569                11.5585

                     67                     68                     69
                      A                      A                      A
 Frequencies --   3832.6207              3844.6941              3849.3137
 Red. masses --      1.0658                 1.0659                 1.0654
 Frc consts  --      9.2237                 9.2830                 9.3011
 IR Inten    --     53.8646                86.2482                67.8070

                     70                     71                     72
                      A                      A                      A
 Frequencies --   3877.4759              3887.5694              3951.6464
 Red. masses --      1.0654                 1.0654                 1.0669
 Frc consts  --      9.4378                 9.4872                 9.8158
 IR Inten    --     77.4834                52.4089                61.2709

 - Thermochemistry -
 -------------------
 Temperature   298.150 Kelvin.  Pressure   1.00000 Atm.
 Atom     1 has atomic number  6 and mass  12.00000

 Molecular mass:   182.07904 amu.
 Principal axes and moments of inertia in atomic units:
                           1         2         3
     Eigenvalues --  1249.563943187.730983546.78987
           X            1.00000  -0.00038  -0.00235
           Y            0.00034   0.99987  -0.01621
           Z            0.00236   0.01621   0.99987
 This molecule is an asymmetric top.
 Rotational symmetry number  1.
 Warning -- assumption of classical behavior for rotation
           may cause significant error
 Rotational temperatures (Kelvin)      0.06932     0.02717     0.02442
 Rotational constants (GHZ):           1.44430     0.56615     0.50884
 Zero-point vibrational energy     585047.0 (Joules/Mol)
                                  139.82960 (Kcal/Mol)
 Warning -- explicit consideration of  22 degrees of freedom as
           vibrations may cause significant error
 Vibrational temperatures:     53.19   110.51   140.43   166.40   219.87
          (Kelvin)            239.91   300.32   337.81   360.78   390.90
                              427.65   461.98   494.99   530.15   567.26
                              625.67   639.08   675.21   689.33   760.02
                              774.82   816.47   950.61   993.63  1155.24
                             1209.62  1295.32  1388.30  1419.23  1423.42
                             1513.12  1535.25  1588.91  1591.90  1622.10
                             1630.27  1658.67  1676.78  1718.64  1752.00
                             1780.37  1816.42  1839.69  1864.90  1923.32
                             1941.21  1963.64  1984.85  2000.19  2002.01
                             2049.93  2056.94  2080.44  2089.53  2097.73
                             2113.71  2186.76  2190.90  4340.98  4362.83
                             4373.02  4417.83  4427.45  4483.63  4489.81
                             4504.19  5514.29  5531.66  5538.30  5578.82
                             5593.35  5685.54

 Zero-point correction=                           0.222833 (Hartree/Particle)
 Thermal correction to Energy=                    0.236394
 Thermal correction to Enthalpy=                  0.237339
 Thermal correction to Gibbs Free Energy=         0.183127
 Sum of electronic and zero-point Energies=           -688.255982
 Sum of electronic and thermal Energies=              -688.242420
 Sum of electronic and thermal Enthalpies=            -688.241476
 Sum of electronic and thermal Free Energies=         -688.295688

                     E (Thermal)             CV                S
                      KCal/Mol        Cal/Mol-Kelvin    Cal/Mol-Kelvin
 Total                  148.340             50.730            114.098
 Electronic               0.000              0.000              0.000
 Translational            0.889              2.981             41.504
 Rotational               0.889              2.981             31.025
 Vibrational            146.562             44.768             41.569
 Vibration     1          0.594              1.982              5.415
 Vibration     2          0.599              1.965              3.971
 Vibration     3          0.603              1.951              3.502
 Vibration     4          0.608              1.936              3.172
 Vibration     5          0.619              1.900              2.637
 Vibration     6          0.624              1.883              2.472
 Vibration     7          0.642              1.827              2.055
 Vibration     8          0.655              1.788              1.842
 Vibration     9          0.663              1.761              1.725
 Vibration    10          0.675              1.725              1.585
 Vibration    11          0.691              1.679              1.432
 Vibration    12          0.707              1.633              1.305
 Vibration    13          0.723              1.587              1.193
 Vibration    14          0.741              1.537              1.086
 Vibration    15          0.761              1.482              0.984
 Vibration    16          0.795              1.394              0.843
 Vibration    17          0.804              1.374              0.814
 Vibration    18          0.826              1.318              0.740
 Vibration    19          0.836              1.296              0.712
 Vibration    20          0.883              1.188              0.591
 Vibration    21          0.894              1.165              0.568
 Vibration    22          0.923              1.102              0.509

 Optimization completed.
    -- Stationary point found.
 Normal termination of Gaussian 16 at Wed Oct 11 15:40:34 2023.
