 Gaussian 16, Revision C.01,
 Gaussian 16:  ES64L-G16RevC.01  3-Jul-2019

 ---------------------------------------------
 # opt freq wb97xd/def2tzvpp geom=connectivity
 ---------------------------------------------

 --------------------------------
 Mannitol Conformer Optimziations
 --------------------------------
 Symbolic Z-matrix:
 Charge =  0 Multiplicity = 1

 SCF Done:  E(RwB97XD) =  -688.469788240     A.U. after   14 cycles
 SCF Done:  E(RwB97XD) =  -688.478288333     A.U. after   12 cycles
 SCF Done:  E(RwB97XD) =  -688.478769547     A.U. after   11 cycles
 SCF Done:  E(RwB97XD) =  -688.479109564     A.U. after   11 cycles
 SCF Done:  E(RwB97XD) =  -688.479268939     A.U. after   11 cycles
 SCF Done:  E(RwB97XD) =  -688.479456418     A.U. after   11 cycles
 SCF Done:  E(RwB97XD) =  -688.479490623     A.U. after   10 cycles
 SCF Done:  E(RwB97XD) =  -688.479520687     A.U. after   10 cycles
 SCF Done:  E(RwB97XD) =  -688.479539964     A.U. after   10 cycles
 SCF Done:  E(RwB97XD) =  -688.479548413     A.U. after   10 cycles
 SCF Done:  E(RwB97XD) =  -688.479551295     A.U. after    8 cycles
 SCF Done:  E(RwB97XD) =  -688.479553521     A.U. after    9 cycles
 SCF Done:  E(RwB97XD) =  -688.479555064     A.U. after    8 cycles
 SCF Done:  E(RwB97XD) =  -688.479555294     A.U. after    7 cycles
 Optimization completed.
    -- Stationary point found.
 Normal termination of Gaussian 16 at Wed Sep 27 11:34:31 2023.

 ----------------------------------------------------------------------
 #N Geom=AllCheck Guess=TCheck SCRF=Check GenChk RwB97XD/def2TZVPP Freq
 ----------------------------------------------------------------------

 Structure from the checkpoint file:  "MannitolConformerOpt_8.chk"
 --------------------------------
 Mannitol Conformer Optimziations
 --------------------------------
 Charge =  0 Multiplicity = 1

                         Standard orientation:
 ---------------------------------------------------------------------
 Center     Atomic      Atomic             Coordinates (Angstroms)
 Number     Number       Type             X           Y           Z
 ---------------------------------------------------------------------
      1          6           0        0.527771    0.755009    0.243397
      2          6           0       -0.776168    0.695085   -0.548118
      3          6           0        1.629721   -0.134187   -0.318484
      4          6           0       -1.502443   -0.651403   -0.640320
      5          1           0       -0.553132    1.019411   -1.571105
      6          1           0        0.336432    0.442807    1.278693
      7          6           0        2.972125    0.172843    0.323280
      8          1           0        1.718336    0.042711   -1.398684
      9          6           0       -1.839669   -1.291676    0.702609
     10          1           0       -0.872727   -1.341229   -1.200941
     11          1           0        2.875756    0.103468    1.412483
     12          1           0        3.294606    1.179512    0.056698
     13          1           0       -0.944698   -1.372292    1.321801
     14          1           0       -2.212884   -2.300445    0.526487
     15          8           0        3.870691   -0.811480   -0.168037
     16          1           0        4.697590   -0.751293    0.305213
     17          8           0        1.281272   -1.480116   -0.071567
     18          1           0        2.082461   -1.994584   -0.194663
     19          8           0        1.010703    2.081768    0.221724
     20          1           0        0.252334    2.652787    0.361293
     21          8           0       -1.622681    1.670403    0.067336
     22          1           0       -2.388117    1.769307   -0.501665
     23          8           0       -2.697872   -0.435467   -1.376377
     24          1           0       -3.416640   -0.453427   -0.738197
     25          8           0       -2.884686   -0.597879    1.363142
     26          1           0       -2.596759    0.311406    1.478642
 ---------------------------------------------------------------------

 SCF Done:  E(RwB97XD) =  -688.479555294     A.U. after    1 cycles

 The electronic state is 1-A.
 Alpha  occ. eigenvalues --  -19.27362 -19.26687 -19.25500 -19.25414 -19.25207
 Alpha  occ. eigenvalues --  -19.25090 -10.34502 -10.34341 -10.34253 -10.33512
 Alpha  occ. eigenvalues --  -10.33413 -10.32781  -1.16755  -1.15546  -1.14180
 Alpha  occ. eigenvalues --   -1.12800  -1.12335  -1.11454  -0.89224  -0.85531
 Alpha  occ. eigenvalues --   -0.80560  -0.75622  -0.71483  -0.68185  -0.64746
 Alpha  occ. eigenvalues --   -0.63162  -0.61184  -0.60891  -0.59738  -0.57625
 Alpha  occ. eigenvalues --   -0.56571  -0.56380  -0.53404  -0.52350  -0.50983
 Alpha  occ. eigenvalues --   -0.50133  -0.48187  -0.46355  -0.45935  -0.45760
 Alpha  occ. eigenvalues --   -0.44743  -0.42549  -0.41591  -0.39216  -0.38136
 Alpha  occ. eigenvalues --   -0.37916  -0.36880  -0.36204  -0.35338
 Alpha virt. eigenvalues --    0.09069   0.10011   0.12298   0.13364   0.13647
 Alpha virt. eigenvalues --    0.15919   0.16440   0.17116   0.17788   0.19100
 Alpha virt. eigenvalues --    0.19794   0.20331   0.21008   0.21838   0.22353

 Mulliken charges:
               1
     1  C    0.133547
     2  C    0.042679
     3  C    0.153196
     4  C    0.162163
     5  H    0.100420
     6  H    0.068359
     7  C   -0.027363
     8  H    0.059533
     9  C    0.007923
    10  H    0.071891
    11  H    0.085642
    12  H    0.098307
    13  H    0.077817
    14  H    0.090752
    15  O   -0.343366
    16  H    0.170940
    17  O   -0.360630
    18  H    0.181606
    19  O   -0.359860
    20  H    0.187250
    21  O   -0.400629
    22  H    0.183932
    23  O   -0.389791
    24  H    0.191721
    25  O   -0.377522
    26  H    0.191484
 Sum of Mulliken charges =  -0.00000

 Dipole moment (field-independent basis, Debye):
    X=              2.0788    Y=              0.7259    Z=              0.7364  Tot=              2.3218
 Quadrupole moment (field-independent basis, Debye-Ang):
   XX=            -64.9039   YY=            -71.4602   ZZ=            -75.9302
   XY=             -6.3495   XZ=              4.9359   YZ=             -0.5421

  Exact polarizability:     110.035      -0.537      92.736       0.518      -0.198      83.350
 Approx polarizability:     106.793      -1.918     103.502      -0.578       0.734      98.509

                      1                      2                      3
                      A                      A                      A
 Frequencies --     43.8514                72.6298                95.6516
 Red. masses --      5.0344                 5.2636                 5.2636
 Frc consts  --      0.0057                 0.0164                 0.0284
 IR Inten    --      1.5604                 0.9121                 7.3120

                      4                      5                      6
                      A                      A                      A
 Frequencies --    124.8836               135.6410               162.7124
 Red. masses --      5.5345                 3.4277                 5.2504
 Frc consts  --      0.0509                 0.0372                 0.0819
 IR Inten    --      2.3068                 6.1109                 4.6340

                      7                      8                      9
                      A                      A                      A
 Frequencies --    208.0109               240.8820               249.4421
 Red. masses --      3.8441                 1.1908                 3.9079
 Frc consts  --      0.0980                 0.0407                 0.1433
 IR Inten    --     17.7511                85.0447                12.5145

                     10                     11                     12
                      A                      A                      A
 Frequencies --    283.1325               297.4962               311.8972
 Red. masses --      3.5726                 4.3637                 3.4467
 Frc consts  --      0.1687                 0.2275                 0.1975
 IR Inten    --     37.6711                 4.0758                12.7691

                     13                     14                     15
                      A                      A                      A
 Frequencies --    326.1275               364.8978               386.9458
 Red. masses --      3.8044                 4.3427                 1.3807
 Frc consts  --      0.2384                 0.3407                 0.1218
 IR Inten    --      3.8822                11.3384               122.4025

                     16                     17                     18
                      A                      A                      A
 Frequencies --    414.7871               436.6340               451.1767
 Red. masses --      1.9667                 1.1947                 1.2657
 Frc consts  --      0.1994                 0.1342                 0.1518
 IR Inten    --     33.7471                31.3137                27.6064

                     19                     20                     21
                      A                      A                      A
 Frequencies --    471.6484               521.1836               535.9120
 Red. masses --      1.2714                 4.7122                 2.5417
 Frc consts  --      0.1666                 0.7541                 0.4301
 IR Inten    --    230.2105                15.3028                12.7615

                     22                     23                     24
                      A                      A                      A
 Frequencies --    580.6415               618.2558               654.9373
 Red. masses --      3.0585                 3.1589                 1.1167
 Frc consts  --      0.6075                 0.7114                 0.2822
 IR Inten    --     10.0031                56.9824                25.2375

                     25                     26                     27
                      A                      A                      A
 Frequencies --    804.1139               840.7612               910.8572
 Red. masses --      4.2248                 3.4796                 2.3651
 Frc consts  --      1.6095                 1.4492                 1.1561
 IR Inten    --     17.3987                22.5020                17.0562

                     28                     29                     30
                      A                      A                      A
 Frequencies --    975.8641               990.3341              1021.7706
 Red. masses --      2.8593                 1.9823                 3.0365
 Frc consts  --      1.6043                 1.1455                 1.8678
 IR Inten    --      7.3558                15.7175                 4.7282

                     31                     32                     33
                      A                      A                      A
 Frequencies --   1065.9497              1073.6511              1101.5788
 Red. masses --      2.3730                 2.6582                 3.0257
 Frc consts  --      1.5886                 1.8054                 2.1632
 IR Inten    --     34.0328                62.1587                21.3811

                     34                     35                     36
                      A                      A                      A
 Frequencies --   1107.2908              1122.2105              1124.7484
 Red. masses --      3.2832                 2.6965                 3.5127
 Frc consts  --      2.3718                 2.0008                 2.6182
 IR Inten    --     87.9264               134.9605               229.1668

                     37                     38                     39
                      A                      A                      A
 Frequencies --   1146.1265              1166.0827              1206.1093
 Red. masses --      2.8061                 2.8513                 1.1595
 Frc consts  --      2.1718                 2.2843                 0.9938
 IR Inten    --      6.1109                11.2819                25.9341

                     40                     41                     42
                      A                      A                      A
 Frequencies --   1237.4821              1246.6503              1260.4837
 Red. masses --      1.1142                 1.2074                 1.2677
 Frc consts  --      1.0053                 1.1055                 1.1867
 IR Inten    --     43.3641                61.2535                24.5882

                     43                     44                     45
                      A                      A                      A
 Frequencies --   1280.7049              1286.1257              1312.0758
 Red. masses --      1.2737                 1.1454                 1.1306
 Frc consts  --      1.2309                 1.1163                 1.1467
 IR Inten    --     11.1264                23.3502                 4.4474

                     46                     47                     48
                      A                      A                      A
 Frequencies --   1351.2808              1372.8324              1377.7345
 Red. masses --      1.3083                 1.2557                 1.3037
 Frc consts  --      1.4075                 1.3943                 1.4580
 IR Inten    --     30.2818                77.4767                19.8615

                     49                     50                     51
                      A                      A                      A
 Frequencies --   1386.6345              1391.4430              1397.6900
 Red. masses --      1.3073                 1.3547                 1.2770
 Frc consts  --      1.4810                 1.5453                 1.4698
 IR Inten    --     10.7266                34.7039                 1.0928

                     52                     53                     54
                      A                      A                      A
 Frequencies --   1430.5035              1446.9251              1454.1514
 Red. masses --      1.2840                 1.4551                 1.4867
 Frc consts  --      1.5481                 1.7949                 1.8522
 IR Inten    --     32.4495                 6.7183                 3.7818

                     55                     56                     57
                      A                      A                      A
 Frequencies --   1457.6647              1493.6147              1518.1965
 Red. masses --      1.3783                 1.9765                 1.0870
 Frc consts  --      1.7255                 2.5979                 1.4762
 IR Inten    --     48.6142                 1.1356                 5.2897

                     58                     59                     60
                      A                      A                      A
 Frequencies --   1524.7567              3002.1124              3011.9510
 Red. masses --      1.0818                 1.0806                 1.0830
 Frc consts  --      1.4818                 5.7382                 5.7887
 IR Inten    --      7.8035                 1.0051                24.3242

                     61                     62                     63
                      A                      A                      A
 Frequencies --   3031.1152              3036.0015              3078.7907
 Red. masses --      1.0682                 1.0833                 1.0591
 Frc consts  --      5.7821                 5.8829                 5.9147
 IR Inten    --     21.4865                83.7988                26.0354

                     64                     65                     66
                      A                      A                      A
 Frequencies --   3114.4430              3118.0599              3127.2620
 Red. masses --      1.0999                 1.0879                 1.1057
 Frc consts  --      6.2858                 6.2319                 6.3709
 IR Inten    --     23.0475                15.8345                21.8466

                     67                     68                     69
                      A                      A                      A
 Frequencies --   3834.1856              3848.7345              3864.8385
 Red. masses --      1.0657                 1.0659                 1.0655
 Frc consts  --      9.2305                 9.3027                 9.3767
 IR Inten    --     58.6944                79.6845                91.9890

                     70                     71                     72
                      A                      A                      A
 Frequencies --   3873.1838              3887.9030              3949.1581
 Red. masses --      1.0655                 1.0655                 1.0668
 Frc consts  --      9.4176                 9.4893                 9.8028
 IR Inten    --     76.2042                54.5581                59.3642

 - Thermochemistry -
 -------------------
 Temperature   298.150 Kelvin.  Pressure   1.00000 Atm.
 Atom     1 has atomic number  6 and mass  12.00000

 Molecular mass:   182.07904 amu.
 Principal axes and moments of inertia in atomic units:
                           1         2         3
     Eigenvalues --  1168.960903443.087753941.38473
           X            0.99999   0.00141   0.00355
           Y           -0.00138   0.99996  -0.00903
           Z           -0.00357   0.00902   0.99995
 This molecule is an asymmetric top.
 Rotational symmetry number  1.
 Warning -- assumption of classical behavior for rotation
           may cause significant error
 Rotational temperatures (Kelvin)      0.07409     0.02516     0.02198
 Rotational constants (GHZ):           1.54389     0.52416     0.45790
 Zero-point vibrational energy     584085.8 (Joules/Mol)
                                  139.59985 (Kcal/Mol)
 Warning -- explicit consideration of  23 degrees of freedom as
           vibrations may cause significant error
 Vibrational temperatures:     63.09   104.50   137.62   179.68   195.16
          (Kelvin)            234.11   299.28   346.58   358.89   407.36
                              428.03   448.75   469.22   525.01   556.73
                              596.79   628.22   649.14   678.60   749.87
                              771.06   835.41   889.53   942.31  1156.94
                             1209.67  1310.52  1404.05  1424.87  1470.10
                             1533.66  1544.74  1584.93  1593.14  1614.61
                             1618.26  1649.02  1677.73  1735.32  1780.46
                             1793.65  1813.55  1842.65  1850.45  1887.78
                             1944.19  1975.20  1982.25  1995.06  2001.98
                             2010.96  2058.18  2081.80  2092.20  2097.25
                             2148.98  2184.35  2193.78  4319.37  4333.53
                             4361.10  4368.13  4429.69  4480.99  4486.19
                             4499.43  5516.54  5537.47  5560.64  5572.65
                             5593.83  5681.96

 Zero-point correction=                           0.222467 (Hartree/Particle)
 Thermal correction to Energy=                    0.236137
 Thermal correction to Enthalpy=                  0.237082
 Thermal correction to Gibbs Free Energy=         0.182695
 Sum of electronic and zero-point Energies=           -688.257089
 Sum of electronic and thermal Energies=              -688.243418
 Sum of electronic and thermal Enthalpies=            -688.242474
 Sum of electronic and thermal Free Energies=         -688.296860

                     E (Thermal)             CV                S
                      KCal/Mol        Cal/Mol-Kelvin    Cal/Mol-Kelvin
 Total                  148.178             50.983            114.465
 Electronic               0.000              0.000              0.000
 Translational            0.889              2.981             41.504
 Rotational               0.889              2.981             31.140
 Vibrational            146.401             45.021             41.821
 Vibration     1          0.595              1.980              5.077
 Vibration     2          0.599              1.967              4.081
 Vibration     3          0.603              1.952              3.541
 Vibration     4          0.610              1.928              3.023
 Vibration     5          0.613              1.918              2.864
 Vibration     6          0.623              1.888              2.518
 Vibration     7          0.641              1.828              2.061
 Vibration     8          0.658              1.778              1.796
 Vibration     9          0.662              1.764              1.735
 Vibration    10          0.682              1.705              1.515
 Vibration    11          0.691              1.678              1.431
 Vibration    12          0.700              1.651              1.352
 Vibration    13          0.710              1.623              1.279
 Vibration    14          0.738              1.545              1.101
 Vibration    15          0.755              1.498              1.012
 Vibration    16          0.778              1.438              0.910
 Vibration    17          0.797              1.390              0.837
 Vibration    18          0.810              1.358              0.792
 Vibration    19          0.829              1.313              0.733
 Vibration    20          0.876              1.203              0.607
 Vibration    21          0.891              1.171              0.574
 Vibration    22          0.937              1.073              0.484
 Vibration    23          0.978              0.993              0.419

 Optimization completed.
    -- Stationary point found.
 Normal termination of Gaussian 16 at Wed Sep 27 12:06:43 2023.
