 Gaussian 16, Revision C.01,
 Gaussian 16:  ES64L-G16RevC.01  3-Jul-2019

 ---------------------------------------------
 # opt freq wb97xd/def2tzvpp geom=connectivity
 ---------------------------------------------

 --------------------------------
 Mannitol Conformer Optimziations
 --------------------------------
 Symbolic Z-matrix:
 Charge =  0 Multiplicity = 1

 SCF Done:  E(RwB97XD) =  -688.466452447     A.U. after   14 cycles
 SCF Done:  E(RwB97XD) =  -688.475991051     A.U. after   12 cycles
 SCF Done:  E(RwB97XD) =  -688.476595862     A.U. after   11 cycles
 SCF Done:  E(RwB97XD) =  -688.476884270     A.U. after   12 cycles
 SCF Done:  E(RwB97XD) =  -688.477354729     A.U. after   11 cycles
 SCF Done:  E(RwB97XD) =  -688.477442756     A.U. after   10 cycles
 SCF Done:  E(RwB97XD) =  -688.477504417     A.U. after   10 cycles
 SCF Done:  E(RwB97XD) =  -688.477529124     A.U. after   10 cycles
 SCF Done:  E(RwB97XD) =  -688.477539693     A.U. after   10 cycles
 SCF Done:  E(RwB97XD) =  -688.477546343     A.U. after    8 cycles
 SCF Done:  E(RwB97XD) =  -688.477551176     A.U. after    8 cycles
 SCF Done:  E(RwB97XD) =  -688.477553801     A.U. after    8 cycles
 SCF Done:  E(RwB97XD) =  -688.477554533     A.U. after    8 cycles
 SCF Done:  E(RwB97XD) =  -688.477554981     A.U. after    8 cycles
 SCF Done:  E(RwB97XD) =  -688.477555369     A.U. after    7 cycles
 SCF Done:  E(RwB97XD) =  -688.477555488     A.U. after    7 cycles
 SCF Done:  E(RwB97XD) =  -688.477555566     A.U. after    7 cycles
 Optimization completed.
    -- Stationary point found.
 Normal termination of Gaussian 16 at Wed Sep 27 11:51:04 2023.

 ----------------------------------------------------------------------
 #N Geom=AllCheck Guess=TCheck SCRF=Check GenChk RwB97XD/def2TZVPP Freq
 ----------------------------------------------------------------------

 Structure from the checkpoint file:  "MannitolConformerOpt_9.chk"
 --------------------------------
 Mannitol Conformer Optimziations
 --------------------------------
 Charge =  0 Multiplicity = 1

                         Standard orientation:
 ---------------------------------------------------------------------
 Center     Atomic      Atomic             Coordinates (Angstroms)
 Number     Number       Type             X           Y           Z
 ---------------------------------------------------------------------
      1          6           0       -0.322061    0.686093   -0.615282
      2          6           0        0.814986    0.771857    0.391947
      3          6           0       -1.412867   -0.330382   -0.291718
      4          6           0        1.627221   -0.498629    0.636427
      5          1           0        0.393611    1.070684    1.359750
      6          1           0        0.087655    0.420442   -1.593311
      7          6           0       -1.999086   -0.182795    1.101945
      8          1           0       -0.998215   -1.335873   -0.405350
      9          6           0        2.284817   -1.090054   -0.606266
     10          1           0        0.975016   -1.262644    1.065583
     11          1           0       -2.290834    0.858077    1.269201
     12          1           0       -1.257273   -0.469220    1.853868
     13          1           0        3.054158   -1.786798   -0.263051
     14          1           0        2.765260   -0.291749   -1.180966
     15          8           0       -3.126232   -1.044088    1.156384
     16          1           0       -3.640188   -0.845931    1.936214
     17          8           0       -2.423526   -0.113739   -1.262417
     18          1           0       -3.212957   -0.556652   -0.943662
     19          8           0       -0.866041    1.996989   -0.664082
     20          1           0       -1.655669    1.944921   -1.207244
     21          8           0        1.741595    1.760336   -0.025222
     22          1           0        1.235207    2.536238   -0.272600
     23          8           0        2.615355   -0.217018    1.604566
     24          1           0        2.991125    0.637459    1.379556
     25          8           0        1.297730   -1.757967   -1.372417
     26          1           0        1.683998   -2.051604   -2.194796
 ---------------------------------------------------------------------

 SCF Done:  E(RwB97XD) =  -688.477555566     A.U. after    1 cycles

 The electronic state is 1-A.
 Alpha  occ. eigenvalues --  -19.26731 -19.25631 -19.25434 -19.25302 -19.25251
 Alpha  occ. eigenvalues --  -19.24496 -10.33829 -10.33709 -10.33673 -10.33535
 Alpha  occ. eigenvalues --  -10.33502 -10.32643  -1.16050  -1.15071  -1.13694
 Alpha  occ. eigenvalues --   -1.13085  -1.11931  -1.10971  -0.89179  -0.84757
 Alpha  occ. eigenvalues --   -0.80289  -0.75856  -0.71081  -0.68003  -0.63868
 Alpha  occ. eigenvalues --   -0.63062  -0.62458  -0.60109  -0.58069  -0.57488
 Alpha  occ. eigenvalues --   -0.56379  -0.54925  -0.54107  -0.52134  -0.51210
 Alpha  occ. eigenvalues --   -0.49668  -0.48627  -0.46265  -0.45590  -0.44211
 Alpha  occ. eigenvalues --   -0.44062  -0.42815  -0.41026  -0.38306  -0.37348
 Alpha  occ. eigenvalues --   -0.36977  -0.36535  -0.36029  -0.35801
 Alpha virt. eigenvalues --    0.09440   0.10366   0.11677   0.12916   0.13961
 Alpha virt. eigenvalues --    0.15450   0.16865   0.17538   0.18176   0.19026
 Alpha virt. eigenvalues --    0.19916   0.20455   0.21633   0.21954   0.22922

 Mulliken charges:
               1
     1  C    0.127473
     2  C    0.052206
     3  C    0.125854
     4  C    0.216594
     5  H    0.095440
     6  H    0.094342
     7  C   -0.039123
     8  H    0.081369
     9  C   -0.068490
    10  H    0.057567
    11  H    0.096806
    12  H    0.073627
    13  H    0.100487
    14  H    0.089873
    15  O   -0.346100
    16  H    0.172683
    17  O   -0.387808
    18  H    0.192586
    19  O   -0.389580
    20  H    0.188769
    21  O   -0.381381
    22  H    0.188896
    23  O   -0.363842
    24  H    0.185891
    25  O   -0.327800
    26  H    0.163662
 Sum of Mulliken charges =   0.00000

 Dipole moment (field-independent basis, Debye):
    X=             -1.3176    Y=              0.1392    Z=             -0.1460  Tot=              1.3329
 Quadrupole moment (field-independent basis, Debye-Ang):
   XX=            -66.1453   YY=            -73.0597   ZZ=            -68.4940
   XY=             -2.2553   XZ=            -12.0125   YZ=              2.9755

  Exact polarizability:     106.278       0.852      89.903       0.014       0.453      89.296
 Approx polarizability:     106.128       2.255     101.342       1.179      -0.163     100.772

                      1                      2                      3
                      A                      A                      A
 Frequencies --     56.6486                65.1391                93.1512
 Red. masses --      5.6448                 5.1723                 3.8961
 Frc consts  --      0.0107                 0.0129                 0.0199
 IR Inten    --      2.7065                 3.2844                 1.5451

                      4                      5                      6
                      A                      A                      A
 Frequencies --    114.9882               141.4151               148.0633
 Red. masses --      4.5043                 4.2713                 4.4073
 Frc consts  --      0.0351                 0.0503                 0.0569
 IR Inten    --      4.0227                10.6301                10.5890

                      7                      8                      9
                      A                      A                      A
 Frequencies --    189.1880               212.1106               241.1147
 Red. masses --      2.5845                 1.5407                 2.6866
 Frc consts  --      0.0545                 0.0408                 0.0920
 IR Inten    --      6.6993                71.5629                17.2132

                     10                     11                     12
                      A                      A                      A
 Frequencies --    251.4616               273.7553               297.5568
 Red. masses --      1.1160                 3.9581                 4.1032
 Frc consts  --      0.0416                 0.1748                 0.2140
 IR Inten    --    110.4541                 6.4959                 2.8931

                     13                     14                     15
                      A                      A                      A
 Frequencies --    309.3854               333.5818               344.1851
 Red. masses --      2.9442                 4.7970                 3.0499
 Frc consts  --      0.1660                 0.3145                 0.2129
 IR Inten    --     20.5516                17.8795                 0.3044

                     16                     17                     18
                      A                      A                      A
 Frequencies --    410.5985               423.7387               441.9897
 Red. masses --      3.0757                 1.3799                 1.1949
 Frc consts  --      0.3055                 0.1460                 0.1375
 IR Inten    --     35.6002               120.6138                59.7698

                     19                     20                     21
                      A                      A                      A
 Frequencies --    449.1410               463.5900               492.2700
 Red. masses --      1.1484                 1.2945                 5.0206
 Frc consts  --      0.1365                 0.1639                 0.7168
 IR Inten    --     79.7065               104.3880                14.1096

                     22                     23                     24
                      A                      A                      A
 Frequencies --    550.3823               561.7191               676.1765
 Red. masses --      2.8884                 3.6408                 3.0452
 Frc consts  --      0.5155                 0.6768                 0.8203
 IR Inten    --     27.1021                 5.2898                22.5642

                     25                     26                     27
                      A                      A                      A
 Frequencies --    733.1331               869.3372               882.7233
 Red. masses --      3.7427                 2.7601                 2.8141
 Frc consts  --      1.1852                 1.2290                 1.2919
 IR Inten    --     47.6640                 9.2646                26.7674

                     28                     29                     30
                      A                      A                      A
 Frequencies --    967.1664              1005.6076              1057.4229
 Red. masses --      2.2435                 1.9111                 2.4345
 Frc consts  --      1.2365                 1.1386                 1.6038
 IR Inten    --     16.8569                20.0459                21.5287

                     31                     32                     33
                      A                      A                      A
 Frequencies --   1082.7778              1084.4771              1097.4379
 Red. masses --      2.7318                 3.0425                 4.8351
 Frc consts  --      1.8870                 2.1083                 3.4310
 IR Inten    --     76.4092                57.4369               140.4649

                     34                     35                     36
                      A                      A                      A
 Frequencies --   1101.1806              1114.8574              1141.6515
 Red. masses --      4.1603                 2.7216                 2.8307
 Frc consts  --      2.9723                 1.9930                 2.1737
 IR Inten    --     89.5128               106.1597                51.0170

                     37                     38                     39
                      A                      A                      A
 Frequencies --   1145.8678              1160.9714              1222.0029
 Red. masses --      2.8417                 2.6295                 1.1800
 Frc consts  --      2.1983                 2.0882                 1.0382
 IR Inten    --     25.1876                19.7544                58.7770

                     40                     41                     42
                      A                      A                      A
 Frequencies --   1236.0113              1246.7020              1265.9935
 Red. masses --      1.2002                 1.1638                 1.2552
 Frc consts  --      1.0803                 1.0657                 1.1853
 IR Inten    --     16.8940                20.1034                27.0298

                     43                     44                     45
                      A                      A                      A
 Frequencies --   1277.5206              1283.4288              1290.6605
 Red. masses --      1.1797                 1.1695                 1.1031
 Frc consts  --      1.1343                 1.1350                 1.0826
 IR Inten    --      5.8954                17.6448                12.9336

                     46                     47                     48
                      A                      A                      A
 Frequencies --   1311.1852              1371.4043              1375.5973
 Red. masses --      1.2424                 1.2609                 1.2696
 Frc consts  --      1.2584                 1.3972                 1.4155
 IR Inten    --     56.8580                40.4991                 8.9836

                     49                     50                     51
                      A                      A                      A
 Frequencies --   1389.9829              1404.9825              1419.2889
 Red. masses --      1.2716                 1.2916                 1.3135
 Frc consts  --      1.4475                 1.5022                 1.5590
 IR Inten    --     20.5469                28.7147                19.2574

                     52                     53                     54
                      A                      A                      A
 Frequencies --   1425.6565              1449.2822              1467.1717
 Red. masses --      1.4116                 1.5259                 1.5171
 Frc consts  --      1.6905                 1.8884                 1.9241
 IR Inten    --     60.8140                30.0711                 0.9030

                     55                     56                     57
                      A                      A                      A
 Frequencies --   1469.0589              1471.3609              1521.4124
 Red. masses --      1.6592                 1.6510                 1.0857
 Frc consts  --      2.1097                 2.1059                 1.4806
 IR Inten    --      1.2882                14.7482                 6.4150

                     58                     59                     60
                      A                      A                      A
 Frequencies --   1528.0445              3017.2584              3031.4152
 Red. masses --      1.0828                 1.0803                 1.0585
 Frc consts  --      1.4896                 5.7945                 5.7308
 IR Inten    --      6.5709                32.9187                30.9083

                     61                     62                     63
                      A                      A                      A
 Frequencies --   3033.6720              3062.5387              3074.2965
 Red. masses --      1.0566                 1.0875                 1.0865
 Frc consts  --      5.7293                 6.0096                 6.0502
 IR Inten    --     40.8093                 3.4119                22.7448

                     64                     65                     66
                      A                      A                      A
 Frequencies --   3075.4659              3086.0510              3090.7995
 Red. masses --      1.0963                 1.1029                 1.0975
 Frc consts  --      6.1092                 6.1887                 6.1774
 IR Inten    --     28.3381                22.8015                50.5611

                     67                     68                     69
                      A                      A                      A
 Frequencies --   3863.5804              3870.1988              3872.7162
 Red. masses --      1.0656                 1.0654                 1.0654
 Frc consts  --      9.3715                 9.4022                 9.4148
 IR Inten    --     55.8419               124.5105                31.6456

                     70                     71                     72
                      A                      A                      A
 Frequencies --   3887.1201              3942.4309              3945.8564
 Red. masses --      1.0657                 1.0667                 1.0669
 Frc consts  --      9.4875                 9.7686                 9.7867
 IR Inten    --     68.5294                49.7227                56.7034

 - Thermochemistry -
 -------------------
 Temperature   298.150 Kelvin.  Pressure   1.00000 Atm.
 Atom     1 has atomic number  6 and mass  12.00000

 Molecular mass:   182.07904 amu.
 Principal axes and moments of inertia in atomic units:
                           1         2         3
     Eigenvalues --  1498.037063108.403793309.99291
           X            0.99980  -0.00760  -0.01863
           Y            0.00835   0.99914   0.04062
           Z            0.01831  -0.04077   0.99900
 This molecule is an asymmetric top.
 Rotational symmetry number  1.
 Warning -- assumption of classical behavior for rotation
           may cause significant error
 Rotational temperatures (Kelvin)      0.05782     0.02786     0.02617
 Rotational constants (GHZ):           1.20474     0.58060     0.54524
 Zero-point vibrational energy     581780.5 (Joules/Mol)
                                  139.04889 (Kcal/Mol)
 Warning -- explicit consideration of  23 degrees of freedom as
           vibrations may cause significant error
 Vibrational temperatures:     81.50    93.72   134.02   165.44   203.46
          (Kelvin)            213.03   272.20   305.18   346.91   361.80
                              393.87   428.12   445.14   479.95   495.21
                              590.76   609.67   635.92   646.21   667.00
                              708.27   791.88   808.19   972.87  1054.82
                             1250.78  1270.04  1391.54  1446.84  1521.40
                             1557.88  1560.32  1578.97  1584.35  1604.03
                             1642.58  1648.65  1670.38  1758.19  1778.34
                             1793.73  1821.48  1838.07  1846.57  1856.97
                             1886.50  1973.14  1979.18  1999.88  2021.46
                             2042.04  2051.20  2085.19  2110.93  2113.65
                             2116.96  2188.97  2198.52  4341.16  4361.53
                             4364.78  4406.31  4423.23  4424.91  4440.14
                             4446.97  5558.83  5568.35  5571.97  5592.70
                             5672.28  5677.21

 Zero-point correction=                           0.221589 (Hartree/Particle)
 Thermal correction to Energy=                    0.235734
 Thermal correction to Enthalpy=                  0.236678
 Thermal correction to Gibbs Free Energy=         0.181405
 Sum of electronic and zero-point Energies=           -688.255967
 Sum of electronic and thermal Energies=              -688.241822
 Sum of electronic and thermal Enthalpies=            -688.240878
 Sum of electronic and thermal Free Energies=         -688.296150

                     E (Thermal)             CV                S
                      KCal/Mol        Cal/Mol-Kelvin    Cal/Mol-Kelvin
 Total                  147.925             51.938            116.331
 Electronic               0.000              0.000              0.000
 Translational            0.889              2.981             41.504
 Rotational               0.889              2.981             31.111
 Vibrational            146.148             45.976             43.715
 Vibration     1          0.596              1.975              4.571
 Vibration     2          0.597              1.971              4.295
 Vibration     3          0.602              1.954              3.593
 Vibration     4          0.608              1.937              3.183
 Vibration     5          0.615              1.912              2.785
 Vibration     6          0.617              1.905              2.697
 Vibration     7          0.633              1.855              2.236
 Vibration     8          0.643              1.822              2.025
 Vibration     9          0.658              1.777              1.795
 Vibration    10          0.663              1.760              1.720
 Vibration    11          0.676              1.722              1.572
 Vibration    12          0.691              1.678              1.431
 Vibration    13          0.699              1.656              1.366
 Vibration    14          0.715              1.608              1.243
 Vibration    15          0.723              1.587              1.193
 Vibration    16          0.775              1.447              0.925
 Vibration    17          0.786              1.419              0.879
 Vibration    18          0.802              1.379              0.820
 Vibration    19          0.808              1.363              0.798
 Vibration    20          0.821              1.331              0.756
 Vibration    21          0.848              1.267              0.678
 Vibration    22          0.906              1.139              0.543
 Vibration    23          0.917              1.114              0.520

 Optimization completed.
    -- Stationary point found.
 Normal termination of Gaussian 16 at Wed Sep 27 12:30:00 2023.
