 Gaussian 16, Revision C.01,
 Gaussian 16:  ES64L-G16RevC.01  3-Jul-2019

 ---------------------------------------------
 # opt freq wb97xd/def2tzvpp geom=connectivity
 ---------------------------------------------

 --------------------------------
 Mannitol Conformer Optimziations
 --------------------------------
 Symbolic Z-matrix:
 Charge =  0 Multiplicity = 1

 SCF Done:  E(RwB97XD) =  -688.468224883     A.U. after   14 cycles
 SCF Done:  E(RwB97XD) =  -688.477103260     A.U. after   11 cycles
 SCF Done:  E(RwB97XD) =  -688.477599154     A.U. after   11 cycles
 SCF Done:  E(RwB97XD) =  -688.477948301     A.U. after   12 cycles
 SCF Done:  E(RwB97XD) =  -688.477392697     A.U. after   12 cycles
 SCF Done:  E(RwB97XD) =  -688.479138157     A.U. after   11 cycles
 SCF Done:  E(RwB97XD) =  -688.479723938     A.U. after   12 cycles
 SCF Done:  E(RwB97XD) =  -688.479786594     A.U. after   11 cycles
 SCF Done:  E(RwB97XD) =  -688.479831413     A.U. after   10 cycles
 SCF Done:  E(RwB97XD) =  -688.479838819     A.U. after   10 cycles
 SCF Done:  E(RwB97XD) =  -688.479843012     A.U. after    8 cycles
 SCF Done:  E(RwB97XD) =  -688.479844006     A.U. after    8 cycles
 SCF Done:  E(RwB97XD) =  -688.479844424     A.U. after    8 cycles
 SCF Done:  E(RwB97XD) =  -688.479844778     A.U. after    7 cycles
 SCF Done:  E(RwB97XD) =  -688.479844848     A.U. after    7 cycles
 Optimization completed.
    -- Stationary point found.
 Normal termination of Gaussian 16 at Wed Sep 27 11:56:13 2023.

 ----------------------------------------------------------------------
 #N Geom=AllCheck Guess=TCheck SCRF=Check GenChk RwB97XD/def2TZVPP Freq
 ----------------------------------------------------------------------

 Structure from the checkpoint file:  "MannitolConformerOpt_19.chk"
 --------------------------------
 Mannitol Conformer Optimziations
 --------------------------------
 Charge =  0 Multiplicity = 1

                         Standard orientation:
 ---------------------------------------------------------------------
 Center     Atomic      Atomic             Coordinates (Angstroms)
 Number     Number       Type             X           Y           Z
 ---------------------------------------------------------------------
      1          6           0        0.343393   -0.430472    0.233210
      2          6           0       -0.487934    0.720813   -0.355461
      3          6           0        1.730400   -0.598625   -0.377138
      4          6           0       -1.984805    0.527467   -0.101706
      5          1           0       -0.337041    0.751900   -1.438893
      6          1           0       -0.183344   -1.374275    0.059966
      7          6           0        2.634327    0.628405   -0.322373
      8          1           0        1.610745   -0.887293   -1.424114
      9          6           0       -2.626221   -0.472791   -1.045986
     10          1           0       -2.464318    1.499880   -0.253519
     11          1           0        2.209796    1.446055   -0.901950
     12          1           0        2.726474    0.968517    0.716473
     13          1           0       -2.114744   -1.439324   -0.984063
     14          1           0       -2.553889   -0.102178   -2.073669
     15          8           0        3.894319    0.325429   -0.872283
     16          1           0        4.156663   -0.521635   -0.505176
     17          8           0        2.384212   -1.690700    0.250963
     18          1           0        2.243910   -1.586129    1.195894
     19          8           0        0.514407   -0.240131    1.629846
     20          1           0       -0.361754   -0.313965    2.022170
     21          8           0       -0.056339    1.960804    0.148584
     22          1           0        0.207939    1.813754    1.061009
     23          8           0       -2.174197    0.113453    1.243755
     24          1           0       -3.092932   -0.148683    1.331783
     25          8           0       -3.977462   -0.595970   -0.639135
     26          1           0       -4.381974   -1.338483   -1.083025
 ---------------------------------------------------------------------

 SCF Done:  E(RwB97XD) =  -688.479844848     A.U. after    1 cycles

 The electronic state is 1-A.
 Alpha  occ. eigenvalues --  -19.28021 -19.27187 -19.26676 -19.25352 -19.25310
 Alpha  occ. eigenvalues --  -19.23289 -10.35323 -10.35027 -10.34945 -10.34869
 Alpha  occ. eigenvalues --  -10.33689 -10.31569  -1.17366  -1.16102  -1.14273
 Alpha  occ. eigenvalues --   -1.13350  -1.12433  -1.10607  -0.89986  -0.86148
 Alpha  occ. eigenvalues --   -0.80247  -0.75959  -0.71164  -0.69724  -0.66459
 Alpha  occ. eigenvalues --   -0.63426  -0.61969  -0.60345  -0.59113  -0.58538
 Alpha  occ. eigenvalues --   -0.57401  -0.54409  -0.53654  -0.53162  -0.51771
 Alpha  occ. eigenvalues --   -0.51145  -0.48917  -0.47438  -0.46825  -0.44557
 Alpha  occ. eigenvalues --   -0.44238  -0.41977  -0.41627  -0.39527  -0.39194
 Alpha  occ. eigenvalues --   -0.38404  -0.37961  -0.36070  -0.34219
 Alpha virt. eigenvalues --    0.08206   0.10831   0.10986   0.12933   0.13671
 Alpha virt. eigenvalues --    0.14477   0.15249   0.17204   0.18117   0.18250
 Alpha virt. eigenvalues --    0.18749   0.20594   0.20738   0.21465   0.21972

 Mulliken charges:
               1
     1  C    0.020368
     2  C    0.146871
     3  C    0.195178
     4  C    0.137582
     5  H    0.065683
     6  H    0.095623
     7  C    0.033820
     8  H    0.060478
     9  C   -0.041881
    10  H    0.093075
    11  H    0.069432
    12  H    0.065972
    13  H    0.087171
    14  H    0.079534
    15  O   -0.354463
    16  H    0.182292
    17  O   -0.386782
    18  H    0.193255
    19  O   -0.410947
    20  H    0.208244
    21  O   -0.360144
    22  H    0.187531
    23  O   -0.382818
    24  H    0.180362
    25  O   -0.339392
    26  H    0.173956
 Sum of Mulliken charges =  -0.00000

 Dipole moment (field-independent basis, Debye):
    X=             -4.6048    Y=             -2.4720    Z=             -0.1378  Tot=              5.2282
 Quadrupole moment (field-independent basis, Debye-Ang):
   XX=            -75.9736   YY=            -75.9329   ZZ=            -68.0880
   XY=              4.8409   XZ=              8.6756   YZ=              2.2028

  Exact polarizability:     111.115       1.009      87.442       0.491       0.103      87.764
 Approx polarizability:     104.255       0.072     100.547      -0.119      -0.345     104.367

                      1                      2                      3
                      A                      A                      A
 Frequencies --     52.5361                76.5690                88.2573
 Red. masses --      5.7246                 5.1621                 4.1713
 Frc consts  --      0.0093                 0.0178                 0.0191
 IR Inten    --      2.1941                 2.0345                 4.1451

                      4                      5                      6
                      A                      A                      A
 Frequencies --    112.2873               143.6962               176.6564
 Red. masses --      3.9257                 3.3472                 4.3480
 Frc consts  --      0.0292                 0.0407                 0.0799
 IR Inten    --      8.5357                 2.7027                 0.3348

                      7                      8                      9
                      A                      A                      A
 Frequencies --    208.4928               214.8099               251.5215
 Red. masses --      5.2329                 4.8104                 1.1129
 Frc consts  --      0.1340                 0.1308                 0.0415
 IR Inten    --      6.6608                 1.2449               101.8791

                     10                     11                     12
                      A                      A                      A
 Frequencies --    258.7437               286.5641               308.1342
 Red. masses --      4.8037                 3.7534                 3.8189
 Frc consts  --      0.1895                 0.1816                 0.2136
 IR Inten    --     19.9706                 7.7554                11.6174

                     13                     14                     15
                      A                      A                      A
 Frequencies --    333.2621               355.4761               405.1936
 Red. masses --      4.3796                 3.4065                 3.7882
 Frc consts  --      0.2866                 0.2536                 0.3664
 IR Inten    --      1.4956                15.9658                 5.9533

                     16                     17                     18
                      A                      A                      A
 Frequencies --    419.1970               430.3432               440.4994
 Red. masses --      1.2511                 1.3202                 1.1996
 Frc consts  --      0.1295                 0.1441                 0.1371
 IR Inten    --     35.9533                57.6416                78.1409

                     19                     20                     21
                      A                      A                      A
 Frequencies --    498.9759               531.9414               540.6492
 Red. masses --      1.5985                 1.6215                 2.7435
 Frc consts  --      0.2345                 0.2703                 0.4725
 IR Inten    --     54.6411               150.9959                16.5097

                     22                     23                     24
                      A                      A                      A
 Frequencies --    607.8338               631.6221               744.2731
 Red. masses --      3.3823                 1.0987                 4.2840
 Frc consts  --      0.7363                 0.2582                 1.3982
 IR Inten    --     63.3389               145.3386                27.1416

                     25                     26                     27
                      A                      A                      A
 Frequencies --    778.8362               854.5414               892.3038
 Red. masses --      3.6386                 3.2882                 3.0016
 Frc consts  --      1.3004                 1.4147                 1.4081
 IR Inten    --      6.3528                20.4887                15.8247

                     28                     29                     30
                      A                      A                      A
 Frequencies --    920.8492               975.5757              1022.7954
 Red. masses --      2.4619                 2.0623                 1.9151
 Frc consts  --      1.2300                 1.1564                 1.1804
 IR Inten    --     28.6311                25.0355                 9.5849

                     31                     32                     33
                      A                      A                      A
 Frequencies --   1066.8015              1090.0680              1105.8919
 Red. masses --      2.9907                 3.2582                 2.9535
 Frc consts  --      2.0054                 2.2810                 2.1282
 IR Inten    --     47.7757                63.2677               116.2349

                     34                     35                     36
                      A                      A                      A
 Frequencies --   1108.3891              1121.6029              1131.0046
 Red. masses --      2.2029                 3.9895                 3.2870
 Frc consts  --      1.5945                 2.9570                 2.4773
 IR Inten    --     11.0196               100.8218                87.6189

                     37                     38                     39
                      A                      A                      A
 Frequencies --   1148.5210              1172.7463              1218.3785
 Red. masses --      3.3766                 2.5925                 1.1331
 Frc consts  --      2.6243                 2.1008                 0.9910
 IR Inten    --      3.1516                91.1514                52.5897

                     40                     41                     42
                      A                      A                      A
 Frequencies --   1235.1191              1252.2521              1255.4097
 Red. masses --      1.1813                 1.2202                 1.2205
 Frc consts  --      1.0617                 1.1274                 1.1333
 IR Inten    --     21.5547                27.1693                94.1625

                     43                     44                     45
                      A                      A                      A
 Frequencies --   1282.7378              1287.0508              1311.6469
 Red. masses --      1.3814                 1.1296                 1.3356
 Frc consts  --      1.3392                 1.1024                 1.3538
 IR Inten    --     15.9466                 2.4850                54.3654

                     46                     47                     48
                      A                      A                      A
 Frequencies --   1339.3531              1356.5507              1378.3749
 Red. masses --      1.2474                 1.2588                 1.3462
 Frc consts  --      1.3184                 1.3648                 1.5070
 IR Inten    --      3.6358                31.4980                21.2042

                     49                     50                     51
                      A                      A                      A
 Frequencies --   1399.7324              1409.3628              1421.5917
 Red. masses --      1.2259                 1.3808                 1.2861
 Frc consts  --      1.4152                 1.6160                 1.5313
 IR Inten    --     16.3044                27.7543                 1.6101

                     52                     53                     54
                      A                      A                      A
 Frequencies --   1434.3755              1443.4578              1455.9079
 Red. masses --      1.3321                 1.2795                 1.3624
 Frc consts  --      1.6148                 1.5707                 1.7015
 IR Inten    --     72.0172                42.6270                17.3731

                     55                     56                     57
                      A                      A                      A
 Frequencies --   1462.2253              1472.8324              1517.2199
 Red. masses --      1.6148                 1.6408                 1.0904
 Frc consts  --      2.0342                 2.0970                 1.4789
 IR Inten    --     24.7253                11.5786                 0.5233

                     58                     59                     60
                      A                      A                      A
 Frequencies --   1517.3923              3015.8848              3021.2744
 Red. masses --      1.0900                 1.0707                 1.0566
 Frc consts  --      1.4787                 5.7378                 5.6826
 IR Inten    --      7.3739                33.7799                34.5139

                     61                     62                     63
                      A                      A                      A
 Frequencies --   3045.2886              3046.0121              3057.5187
 Red. masses --      1.0867                 1.0838                 1.0854
 Frc consts  --      5.9378                 5.9246                 5.9781
 IR Inten    --     17.2602                11.4901                17.4656

                     64                     65                     66
                      A                      A                      A
 Frequencies --   3074.3987              3078.9661              3135.2716
 Red. masses --      1.1042                 1.0857                 1.0941
 Frc consts  --      6.1494                 6.0641                 6.3365
 IR Inten    --     54.9657                39.4428                16.7707

                     67                     68                     69
                      A                      A                      A
 Frequencies --   3819.3878              3842.2492              3853.8228
 Red. masses --      1.0653                 1.0651                 1.0653
 Frc consts  --      9.1565                 9.2640                 9.3219
 IR Inten    --    159.6821                55.4279                59.0285

                     70                     71                     72
                      A                      A                      A
 Frequencies --   3866.4519              3877.9363              3943.5399
 Red. masses --      1.0653                 1.0656                 1.0669
 Frc consts  --      9.3829                 9.4415                 9.7756
 IR Inten    --     39.7118                74.0622                61.4197

 - Thermochemistry -
 -------------------
 Temperature   298.150 Kelvin.  Pressure   1.00000 Atm.
 Atom     1 has atomic number  6 and mass  12.00000

 Molecular mass:   182.07904 amu.
 Principal axes and moments of inertia in atomic units:
                           1         2         3
     Eigenvalues --  1015.252344036.408304149.81039
           X            0.99995   0.00556   0.00805
           Y           -0.00598   0.99857   0.05313
           Z           -0.00774  -0.05317   0.99856
 This molecule is an asymmetric top.
 Rotational symmetry number  1.
 Warning -- assumption of classical behavior for rotation
           may cause significant error
 Rotational temperatures (Kelvin)      0.08531     0.02146     0.02087
 Rotational constants (GHZ):           1.77763     0.44712     0.43490
 Zero-point vibrational energy     583995.6 (Joules/Mol)
                                  139.57829 (Kcal/Mol)
 Warning -- explicit consideration of  22 degrees of freedom as
           vibrations may cause significant error
 Vibrational temperatures:     75.59   110.17   126.98   161.56   206.75
          (Kelvin)            254.17   299.97   309.06   361.88   372.27
                              412.30   443.34   479.49   511.45   582.98
                              603.13   619.17   633.78   717.92   765.35
                              777.87   874.54   908.76  1070.84  1120.57
                             1229.49  1283.83  1324.90  1403.64  1471.57
                             1534.89  1568.36  1591.13  1594.72  1613.74
                             1627.26  1652.47  1687.32  1752.97  1777.06
                             1801.71  1806.25  1845.57  1851.78  1887.17
                             1927.03  1951.77  1983.17  2013.90  2027.76
                             2045.35  2063.75  2076.81  2094.73  2103.82
                             2119.08  2182.94  2183.19  4339.19  4346.94
                             4381.49  4382.53  4399.09  4423.37  4429.95
                             4510.96  5495.25  5528.14  5544.79  5562.96
                             5579.49  5673.87

 Zero-point correction=                           0.222432 (Hartree/Particle)
 Thermal correction to Energy=                    0.236083
 Thermal correction to Enthalpy=                  0.237027
 Thermal correction to Gibbs Free Energy=         0.182704
 Sum of electronic and zero-point Energies=           -688.257413
 Sum of electronic and thermal Energies=              -688.243762
 Sum of electronic and thermal Enthalpies=            -688.242818
 Sum of electronic and thermal Free Energies=         -688.297141

                     E (Thermal)             CV                S
                      KCal/Mol        Cal/Mol-Kelvin    Cal/Mol-Kelvin
 Total                  148.144             50.806            114.332
 Electronic               0.000              0.000              0.000
 Translational            0.889              2.981             41.504
 Rotational               0.889              2.981             31.209
 Vibrational            146.367             44.845             41.619
 Vibration     1          0.596              1.977              4.720
 Vibration     2          0.599              1.965              3.977
 Vibration     3          0.601              1.957              3.698
 Vibration     4          0.607              1.939              3.229
 Vibration     5          0.616              1.909              2.754
 Vibration     6          0.628              1.871              2.363
 Vibration     7          0.642              1.828              2.057
 Vibration     8          0.645              1.818              2.002
 Vibration     9          0.663              1.760              1.720
 Vibration    10          0.668              1.748              1.670
 Vibration    11          0.684              1.699              1.494
 Vibration    12          0.698              1.658              1.372
 Vibration    13          0.715              1.609              1.244
 Vibration    14          0.731              1.564              1.142
 Vibration    15          0.770              1.459              0.944
 Vibration    16          0.782              1.429              0.895
 Vibration    17          0.792              1.404              0.858
 Vibration    18          0.800              1.382              0.825
 Vibration    19          0.854              1.252              0.661
 Vibration    20          0.887              1.179              0.583
 Vibration    21          0.896              1.160              0.564
 Vibration    22          0.967              1.015              0.436

                           ! Non-Optimized Parameters !
 Normal termination of Gaussian 16 at Wed Sep 27 12:35:05 2023.
