 Gaussian 16, Revision C.01,
 Gaussian 16:  ES64L-G16RevC.01  3-Jul-2019

 ---------------------------------------------
 # opt freq wb97xd/Def2TZVPP geom=connectivity
 ---------------------------------------------

 -------------------
 Title Card Required
 -------------------
 Symbolic Z-matrix:
 Charge =  0 Multiplicity = 1

 SCF Done:  E(RwB97XD) =  -688.468914321     A.U. after   13 cycles
 SCF Done:  E(RwB97XD) =  -688.478001089     A.U. after   12 cycles
 SCF Done:  E(RwB97XD) =  -688.477164896     A.U. after   12 cycles
 SCF Done:  E(RwB97XD) =  -688.478266578     A.U. after   12 cycles
 SCF Done:  E(RwB97XD) =  -688.479945773     A.U. after   11 cycles
 SCF Done:  E(RwB97XD) =  -688.480289850     A.U. after   11 cycles
 SCF Done:  E(RwB97XD) =  -688.480416635     A.U. after   11 cycles
 SCF Done:  E(RwB97XD) =  -688.480486632     A.U. after   10 cycles
 SCF Done:  E(RwB97XD) =  -688.480510708     A.U. after   10 cycles
 SCF Done:  E(RwB97XD) =  -688.480523622     A.U. after    9 cycles
 SCF Done:  E(RwB97XD) =  -688.480529530     A.U. after    8 cycles
 SCF Done:  E(RwB97XD) =  -688.480532454     A.U. after    8 cycles
 SCF Done:  E(RwB97XD) =  -688.480535766     A.U. after    9 cycles
 SCF Done:  E(RwB97XD) =  -688.480536881     A.U. after    8 cycles
 SCF Done:  E(RwB97XD) =  -688.480537413     A.U. after    8 cycles
 SCF Done:  E(RwB97XD) =  -688.480537883     A.U. after    8 cycles
 SCF Done:  E(RwB97XD) =  -688.480537953     A.U. after    7 cycles
 Optimization completed.
    -- Stationary point found.
 Normal termination of Gaussian 16 at Wed Oct 11 15:06:56 2023.

 ----------------------------------------------------------------------
 #N Geom=AllCheck Guess=TCheck SCRF=Check GenChk RwB97XD/def2TZVPP Freq
 ----------------------------------------------------------------------

 Structure from the checkpoint file:  "MannitolConformerOpt_44.chk"
 -------------------
 Title Card Required
 -------------------
 Charge =  0 Multiplicity = 1

                         Standard orientation:
 ---------------------------------------------------------------------
 Center     Atomic      Atomic             Coordinates (Angstroms)
 Number     Number       Type             X           Y           Z
 ---------------------------------------------------------------------
      1          6           0       -0.210977   -0.388679    0.668126
      2          6           0        0.567280   -0.429550   -0.659693
      3          6           0       -1.712696   -0.210896    0.473463
      4          6           0        2.068275   -0.148457   -0.498612
      5          1           0        0.159944    0.325842   -1.337945
      6          1           0        0.145858    0.447584    1.267694
      7          6           0       -2.088118    1.224786    0.153200
      8          1           0       -2.198732   -0.491743    1.414028
      9          6           0        2.407376    1.323457   -0.678668
     10          1           0        2.567626   -0.711467   -1.295304
     11          1           0       -1.546303    1.573460   -0.731495
     12          1           0       -1.823315    1.868634    0.997193
     13          1           0        2.040828    1.679763   -1.641789
     14          1           0        3.496961    1.431598   -0.669847
     15          8           0       -3.486438    1.226774   -0.079697
     16          1           0       -3.747532    2.064335   -0.456760
     17          8           0       -2.159661   -1.074309   -0.562058
     18          1           0       -3.057580   -0.812910   -0.777223
     19          8           0        0.077382   -1.563775    1.407618
     20          1           0        0.029143   -2.293773    0.781546
     21          8           0        0.420634   -1.715838   -1.241578
     22          1           0       -0.516280   -1.815983   -1.441033
     23          8           0        2.595966   -0.522800    0.760886
     24          1           0        2.004402   -1.157369    1.177945
     25          8           0        1.817290    2.133741    0.316078
     26          1           0        2.136750    1.797718    1.156107
 ---------------------------------------------------------------------

 SCF Done:  E(RwB97XD) =  -688.480537953     A.U. after    1 cycles

 The electronic state is 1-A.
 Alpha  occ. eigenvalues --  -19.27570 -19.26906 -19.26228 -19.25435 -19.25002
 Alpha  occ. eigenvalues --  -19.24228 -10.34739 -10.34712 -10.34515 -10.34357
 Alpha  occ. eigenvalues --  -10.33320 -10.32712  -1.17065  -1.15672  -1.13830
 Alpha  occ. eigenvalues --   -1.13219  -1.12300  -1.11145  -0.89570  -0.85999
 Alpha  occ. eigenvalues --   -0.80705  -0.75983  -0.71013  -0.68938  -0.65841
 Alpha  occ. eigenvalues --   -0.62869  -0.61323  -0.60318  -0.59289  -0.58088
 Alpha  occ. eigenvalues --   -0.57585  -0.56379  -0.53230  -0.52761  -0.51271
 Alpha  occ. eigenvalues --   -0.50695  -0.48484  -0.47536  -0.46584  -0.44681
 Alpha  occ. eigenvalues --   -0.43507  -0.42726  -0.42281  -0.39110  -0.38991
 Alpha  occ. eigenvalues --   -0.38295  -0.37270  -0.35736  -0.34946
 Alpha virt. eigenvalues --    0.08621   0.11079   0.11913   0.12462   0.14268
 Alpha virt. eigenvalues --    0.14901   0.15622   0.17558   0.18602   0.18866
 Alpha virt. eigenvalues --    0.19715   0.20085   0.20969   0.21768   0.22516

 Mulliken charges:
               1
     1  C    0.158697
     2  C    0.069040
     3  C    0.103339
     4  C    0.142953
     5  H    0.068535
     6  H    0.079157
     7  C   -0.027386
     8  H    0.090255
     9  C    0.022340
    10  H    0.076839
    11  H    0.090316
    12  H    0.082933
    13  H    0.058434
    14  H    0.089966
    15  O   -0.342286
    16  H    0.174435
    17  O   -0.384047
    18  H    0.181438
    19  O   -0.367006
    20  H    0.182889
    21  O   -0.376659
    22  H    0.199211
    23  O   -0.403662
    24  H    0.210026
    25  O   -0.363805
    26  H    0.184047
 Sum of Mulliken charges =  -0.00000

 Dipole moment (field-independent basis, Debye):
    X=             -2.6879    Y=              1.8761    Z=             -1.3035  Tot=              3.5276
 Quadrupole moment (field-independent basis, Debye-Ang):
   XX=            -71.5213   YY=            -72.5933   ZZ=            -71.8147
   XY=             -3.6140   XZ=              1.9330   YZ=             -1.0861

  Exact polarizability:     105.207      -0.736      92.982      -0.821      -0.213      86.711
 Approx polarizability:     103.531      -0.888     102.891       1.342       0.421     102.854

                      1                      2                      3
                      A                      A                      A
 Frequencies --     33.3124                60.1516                84.8618
 Red. masses --      5.1690                 5.0894                 4.3914
 Frc consts  --      0.0034                 0.0108                 0.0186
 IR Inten    --      3.3755                 2.6770                 3.2854

                      4                      5                      6
                      A                      A                      A
 Frequencies --     99.7077               130.3370               199.1044
 Red. masses --      3.8293                 4.6790                 5.4920
 Frc consts  --      0.0224                 0.0468                 0.1283
 IR Inten    --      2.2833                15.7573                 2.2337

                      7                      8                      9
                      A                      A                      A
 Frequencies --    218.7814               222.7643               252.5769
 Red. masses --      4.5667                 4.3250                 1.1825
 Frc consts  --      0.1288                 0.1265                 0.0444
 IR Inten    --     10.4378                 1.3950                96.7375

                     10                     11                     12
                      A                      A                      A
 Frequencies --    260.3937               291.8442               292.7866
 Red. masses --      5.1652                 3.6512                 3.7179
 Frc consts  --      0.2063                 0.1832                 0.1878
 IR Inten    --      9.5574                19.6363                15.3274

                     13                     14                     15
                      A                      A                      A
 Frequencies --    335.3257               371.0116               402.6537
 Red. masses --      2.4783                 3.5968                 4.4595
 Frc consts  --      0.1642                 0.2917                 0.4260
 IR Inten    --      8.2272                 8.2562                22.9328

                     16                     17                     18
                      A                      A                      A
 Frequencies --    440.7032               459.3385               486.0568
 Red. masses --      1.2143                 1.3107                 1.5312
 Frc consts  --      0.1390                 0.1629                 0.2131
 IR Inten    --     89.4955                33.9772                66.0659

                     19                     20                     21
                      A                      A                      A
 Frequencies --    498.3971               545.1560               581.2613
 Red. masses --      2.1601                 2.6081                 1.1706
 Frc consts  --      0.3161                 0.4567                 0.2330
 IR Inten    --     86.2803                 2.7197               117.8408

                     22                     23                     24
                      A                      A                      A
 Frequencies --    640.1750               673.3045               762.7304
 Red. masses --      1.2953                 2.4185                 4.3379
 Frc consts  --      0.3128                 0.6460                 1.4869
 IR Inten    --    170.7819                52.2006                27.7319

                     25                     26                     27
                      A                      A                      A
 Frequencies --    790.8581               871.5004               900.3980
 Red. masses --      3.8170                 4.3213                 2.7040
 Frc consts  --      1.4066                 1.9337                 1.2916
 IR Inten    --     30.8604                 5.8064                35.4489

                     28                     29                     30
                      A                      A                      A
 Frequencies --    916.9348               951.2306              1021.4167
 Red. masses --      2.6216                 1.7532                 2.2331
 Frc consts  --      1.2987                 0.9346                 1.3727
 IR Inten    --     14.1061                37.4594                 4.7436

                     31                     32                     33
                      A                      A                      A
 Frequencies --   1028.5921              1064.4279              1097.2601
 Red. masses --      2.8532                 2.7359                 2.8419
 Frc consts  --      1.7785                 1.8263                 2.0159
 IR Inten    --     11.7596                70.0293                88.0507

                     34                     35                     36
                      A                      A                      A
 Frequencies --   1104.2721              1108.8737              1132.3984
 Red. masses --      2.3025                 3.7127                 3.2885
 Frc consts  --      1.6543                 2.6897                 2.4845
 IR Inten    --     49.5134                46.0909                45.7017

                     37                     38                     39
                      A                      A                      A
 Frequencies --   1148.7124              1162.7057              1225.6058
 Red. masses --      3.2900                 2.7173                 1.1250
 Frc consts  --      2.5578                 2.1643                 0.9956
 IR Inten    --     62.2814                68.7436                46.7432

                     40                     41                     42
                      A                      A                      A
 Frequencies --   1236.4684              1244.7447              1272.4398
 Red. masses --      1.1943                 1.1909                 1.2874
 Frc consts  --      1.0758                 1.0872                 1.2281
 IR Inten    --     15.9785                15.5935                73.4834

                     43                     44                     45
                      A                      A                      A
 Frequencies --   1283.9442              1286.9473              1310.1163
 Red. masses --      1.1638                 1.1475                 1.2190
 Frc consts  --      1.1304                 1.1198                 1.2328
 IR Inten    --     19.5161                 3.4625                83.0153

                     46                     47                     48
                      A                      A                      A
 Frequencies --   1342.7906              1361.6868              1389.1471
 Red. masses --      1.2225                 1.3168                 1.2690
 Frc consts  --      1.2988                 1.4386                 1.4429
 IR Inten    --     31.4889                 8.9960                15.4891

                     49                     50                     51
                      A                      A                      A
 Frequencies --   1395.7188              1401.8962              1426.2335
 Red. masses --      1.3388                 1.3460                 1.3406
 Frc consts  --      1.5366                 1.5586                 1.6067
 IR Inten    --     21.4627                 8.8191                 1.5863

                     52                     53                     54
                      A                      A                      A
 Frequencies --   1427.8470              1444.1745              1450.1641
 Red. masses --      1.3537                 1.4336                 1.2792
 Frc consts  --      1.6260                 1.7616                 1.5850
 IR Inten    --      6.7723                96.0844                38.5926

                     55                     56                     57
                      A                      A                      A
 Frequencies --   1471.4385              1475.3155              1511.9097
 Red. masses --      1.6024                 1.6487                 1.0954
 Frc consts  --      2.0442                 2.1143                 1.4753
 IR Inten    --     11.5158                18.8894                 3.5239

                     58                     59                     60
                      A                      A                      A
 Frequencies --   1514.5052              3028.1324              3031.1099
 Red. masses --      1.0898                 1.0759                 1.0587
 Frc consts  --      1.4728                 5.8126                 5.7310
 IR Inten    --      5.6155                11.2669                28.7953

                     61                     62                     63
                      A                      A                      A
 Frequencies --   3039.9835              3041.7026              3053.8337
 Red. masses --      1.0830                 1.0748                 1.0844
 Frc consts  --      5.8969                 5.8590                 5.9582
 IR Inten    --     33.6397                63.3187                27.7285

                     64                     65                     66
                      A                      A                      A
 Frequencies --   3082.2023              3112.5864              3124.0717
 Red. masses --      1.1068                 1.0988                 1.0854
 Frc consts  --      6.1950                 6.2718                 6.2416
 IR Inten    --     39.1336                29.5634                10.5664

                     67                     68                     69
                      A                      A                      A
 Frequencies --   3791.6103              3807.5032              3826.3494
 Red. masses --      1.0671                 1.0655                 1.0645
 Frc consts  --      9.0385                 9.1013                 9.1825
 IR Inten    --    194.5714               118.0399                84.0160

                     70                     71                     72
                      A                      A                      A
 Frequencies --   3870.1769              3875.8594              3943.9997
 Red. masses --      1.0657                 1.0654                 1.0669
 Frc consts  --      9.4046                 9.4293                 9.7776
 IR Inten    --     74.6406                36.2509                60.0751

 - Thermochemistry -
 -------------------
 Temperature   298.150 Kelvin.  Pressure   1.00000 Atm.
 Atom     1 has atomic number  6 and mass  12.00000

 Molecular mass:   182.07904 amu.
 Principal axes and moments of inertia in atomic units:
                           1         2         3
     Eigenvalues --  1401.208322943.325873541.08835
           X            0.99998  -0.00213  -0.00518
           Y            0.00209   0.99996  -0.00855
           Z            0.00520   0.00854   0.99995
 This molecule is an asymmetric top.
 Rotational symmetry number  1.
 Warning -- assumption of classical behavior for rotation
           may cause significant error
 Rotational temperatures (Kelvin)      0.06181     0.02943     0.02446
 Rotational constants (GHZ):           1.28799     0.61316     0.50966
 Zero-point vibrational energy     584642.1 (Joules/Mol)
                                  139.73282 (Kcal/Mol)
 Warning -- explicit consideration of  21 degrees of freedom as
           vibrations may cause significant error
 Vibrational temperatures:     47.93    86.54   122.10   143.46   187.53
          (Kelvin)            286.47   314.78   320.51   363.40   374.65
                              419.90   421.25   482.46   533.80   579.33
                              634.07   660.89   699.33   717.08   784.36
                              836.31   921.07   968.74  1097.40  1137.87
                             1253.89  1295.47  1319.26  1368.61  1469.59
                             1479.91  1531.47  1578.71  1588.80  1595.42
                             1629.27  1652.74  1672.87  1763.37  1779.00
                             1790.91  1830.76  1847.31  1851.63  1884.97
                             1931.98  1959.16  1998.67  2008.13  2017.02
                             2052.03  2054.35  2077.84  2086.46  2117.07
                             2122.65  2175.30  2179.04  4356.81  4361.09
                             4373.86  4376.33  4393.79  4434.60  4478.32
                             4494.84  5455.28  5478.15  5505.26  5568.32
                             5576.50  5674.54

 Zero-point correction=                           0.222678 (Hartree/Particle)
 Thermal correction to Energy=                    0.236233
 Thermal correction to Enthalpy=                  0.237177
 Thermal correction to Gibbs Free Energy=         0.182475
 Sum of electronic and zero-point Energies=           -688.257860
 Sum of electronic and thermal Energies=              -688.244305
 Sum of electronic and thermal Enthalpies=            -688.243361
 Sum of electronic and thermal Free Energies=         -688.298063

                     E (Thermal)             CV                S
                      KCal/Mol        Cal/Mol-Kelvin    Cal/Mol-Kelvin
 Total                  148.238             50.315            115.131
 Electronic               0.000              0.000              0.000
 Translational            0.889              2.981             41.504
 Rotational               0.889              2.981             31.058
 Vibrational            146.461             44.353             42.569
 Vibration     1          0.594              1.983              5.622
 Vibration     2          0.597              1.973              4.452
 Vibration     3          0.601              1.960              3.775
 Vibration     4          0.604              1.949              3.460
 Vibration     5          0.612              1.923              2.941
 Vibration     6          0.637              1.841              2.141
 Vibration     7          0.647              1.812              1.969
 Vibration     8          0.648              1.806              1.937
 Vibration     9          0.664              1.758              1.713
 Vibration    10          0.668              1.745              1.659
 Vibration    11          0.687              1.689              1.463
 Vibration    12          0.688              1.687              1.458
 Vibration    13          0.716              1.605              1.234
 Vibration    14          0.743              1.532              1.076
 Vibration    15          0.768              1.464              0.953
 Vibration    16          0.801              1.381              0.824
 Vibration    17          0.817              1.340              0.768
 Vibration    18          0.842              1.281              0.694
 Vibration    19          0.854              1.254              0.662
 Vibration    20          0.900              1.150              0.554
 Vibration    21          0.938              1.072              0.483

                           ! Non-Optimized Parameters !
 Normal termination of Gaussian 16 at Wed Oct 11 15:46:31 2023.
