 Gaussian 16, Revision C.01,
 Gaussian 16:  ES64L-G16RevC.01  3-Jul-2019

 ---------------------------------------------
 # opt freq wb97xd/def2tzvpp geom=connectivity
 ---------------------------------------------

 --------------------------------
 Mannitol Conformer Optimziations
 --------------------------------
 Symbolic Z-matrix:
 Charge =  0 Multiplicity = 1

 SCF Done:  E(RwB97XD) =  -688.468955490     A.U. after   13 cycles
 SCF Done:  E(RwB97XD) =  -688.478359105     A.U. after   11 cycles
 SCF Done:  E(RwB97XD) =  -688.479200103     A.U. after   11 cycles
 SCF Done:  E(RwB97XD) =  -688.479311672     A.U. after   11 cycles
 SCF Done:  E(RwB97XD) =  -688.479349346     A.U. after   11 cycles
 SCF Done:  E(RwB97XD) =  -688.479462243     A.U. after   10 cycles
 SCF Done:  E(RwB97XD) =  -688.479490212     A.U. after   10 cycles
 SCF Done:  E(RwB97XD) =  -688.479511228     A.U. after   10 cycles
 SCF Done:  E(RwB97XD) =  -688.479517463     A.U. after    9 cycles
 SCF Done:  E(RwB97XD) =  -688.479523816     A.U. after    8 cycles
 SCF Done:  E(RwB97XD) =  -688.479525395     A.U. after    8 cycles
 SCF Done:  E(RwB97XD) =  -688.479525871     A.U. after    7 cycles
 SCF Done:  E(RwB97XD) =  -688.479526063     A.U. after    7 cycles
 Optimization completed.
    -- Stationary point found.
 Normal termination of Gaussian 16 at Wed Sep 27 11:34:21 2023.

 ----------------------------------------------------------------------
 #N Geom=AllCheck Guess=TCheck SCRF=Check GenChk RwB97XD/def2TZVPP Freq
 ----------------------------------------------------------------------

 Structure from the checkpoint file:  "MannitolConformerOpt_17.chk"
 --------------------------------
 Mannitol Conformer Optimziations
 --------------------------------
 Charge =  0 Multiplicity = 1

                         Standard orientation:
 ---------------------------------------------------------------------
 Center     Atomic      Atomic             Coordinates (Angstroms)
 Number     Number       Type             X           Y           Z
 ---------------------------------------------------------------------
      1          6           0        0.538984   -0.711513    0.162275
      2          6           0       -0.536314    0.338352   -0.119532
      3          6           0        1.892021   -0.414055   -0.478286
      4          6           0       -1.938374   -0.247030    0.051321
      5          1           0       -0.443058    0.670413   -1.157619
      6          1           0        0.198458   -1.667670   -0.242732
      7          6           0        2.470641    0.955599   -0.166214
      8          1           0        1.779353   -0.503575   -1.565708
      9          6           0       -3.012052    0.805803   -0.143553
     10          1           0       -2.031197   -0.656400    1.065902
     11          1           0        1.859891    1.738648   -0.619149
     12          1           0        2.491522    1.110970    0.915971
     13          1           0       -2.883572    1.272432   -1.127292
     14          1           0       -2.927421    1.573442    0.627538
     15          8           0        3.788162    0.952094   -0.701674
     16          1           0        4.255255    1.726725   -0.396275
     17          8           0        2.767141   -1.420467   -0.000003
     18          1           0        3.660366   -1.122133   -0.186804
     19          8           0        0.661838   -0.799115    1.571522
     20          1           0        1.464926   -1.296167    1.744515
     21          8           0       -0.360560    1.469096    0.704986
     22          1           0       -0.065262    1.131520    1.556071
     23          8           0       -2.083900   -1.273557   -0.906579
     24          1           0       -3.016671   -1.495346   -0.935475
     25          8           0       -4.256736    0.125832   -0.068321
     26          1           0       -4.959589    0.723138   -0.314463
 ---------------------------------------------------------------------

 SCF Done:  E(RwB97XD) =  -688.479526063     A.U. after    1 cycles

 The electronic state is 1-A.
 Alpha  occ. eigenvalues --  -19.26505 -19.25928 -19.25514 -19.25378 -19.24932
 Alpha  occ. eigenvalues --  -19.24377 -10.33762 -10.33716 -10.33402 -10.33306
 Alpha  occ. eigenvalues --  -10.32858 -10.32770  -1.16098  -1.14830  -1.14202
 Alpha  occ. eigenvalues --   -1.12666  -1.11618  -1.11210  -0.88427  -0.85491
 Alpha  occ. eigenvalues --   -0.80673  -0.75093  -0.69491  -0.69086  -0.63731
 Alpha  occ. eigenvalues --   -0.62756  -0.61306  -0.60374  -0.58958  -0.56830
 Alpha  occ. eigenvalues --   -0.56718  -0.55709  -0.53905  -0.52076  -0.51144
 Alpha  occ. eigenvalues --   -0.49681  -0.47139  -0.46191  -0.45297  -0.44498
 Alpha  occ. eigenvalues --   -0.43769  -0.42776  -0.41717  -0.37998  -0.37661
 Alpha  occ. eigenvalues --   -0.37043  -0.36985  -0.35817  -0.35127
 Alpha virt. eigenvalues --    0.09633   0.10257   0.11775   0.13040   0.14112
 Alpha virt. eigenvalues --    0.15428   0.16820   0.17332   0.18874   0.19362
 Alpha virt. eigenvalues --    0.20160   0.20731   0.21714   0.22077   0.22827

 Mulliken charges:
               1
     1  C    0.095873
     2  C    0.154314
     3  C    0.135083
     4  C    0.123662
     5  H    0.069471
     6  H    0.106435
     7  C   -0.027625
     8  H    0.067250
     9  C   -0.019647
    10  H    0.068168
    11  H    0.090530
    12  H    0.080380
    13  H    0.076929
    14  H    0.088018
    15  O   -0.347089
    16  H    0.172158
    17  O   -0.383002
    18  H    0.193921
    19  O   -0.391509
    20  H    0.192341
    21  O   -0.391685
    22  H    0.193144
    23  O   -0.357607
    24  H    0.183230
    25  O   -0.340231
    26  H    0.167486
 Sum of Mulliken charges =  -0.00000

 Dipole moment (field-independent basis, Debye):
    X=              0.2648    Y=              2.5700    Z=              0.0823  Tot=              2.5849
 Quadrupole moment (field-independent basis, Debye-Ang):
   XX=            -56.2520   YY=            -72.6351   ZZ=            -72.7522
   XY=              0.7677   XZ=              6.0041   YZ=             -1.0104

  Exact polarizability:     114.447      -0.295      89.360       0.775       0.476      83.880
 Approx polarizability:     105.828      -0.350     101.175       1.168       0.781     100.897

                      1                      2                      3
                      A                      A                      A
 Frequencies --     49.6135                61.5276                78.3149
 Red. masses --      5.7134                 4.8131                 5.4863
 Frc consts  --      0.0083                 0.0107                 0.0198
 IR Inten    --      0.9497                 1.6907                 1.8613

                      4                      5                      6
                      A                      A                      A
 Frequencies --    124.5056               135.8102               145.8537
 Red. masses --      3.3054                 3.5255                 3.9733
 Frc consts  --      0.0302                 0.0383                 0.0498
 IR Inten    --      6.5859                 6.9350                 0.4485

                      7                      8                      9
                      A                      A                      A
 Frequencies --    188.9732               232.0094               242.6437
 Red. masses --      5.2468                 1.1983                 4.7215
 Frc consts  --      0.1104                 0.0380                 0.1638
 IR Inten    --     11.6979                82.4925                 4.6197

                     10                     11                     12
                      A                      A                      A
 Frequencies --    253.7426               260.9819               289.2944
 Red. masses --      1.1489                 3.2240                 4.9139
 Frc consts  --      0.0436                 0.1294                 0.2423
 IR Inten    --    108.5507                21.8314                 0.2910

                     13                     14                     15
                      A                      A                      A
 Frequencies --    307.4571               318.4837               344.6951
 Red. masses --      3.8489                 5.2844                 4.2281
 Frc consts  --      0.2144                 0.3158                 0.2960
 IR Inten    --     12.2895                14.4425                 2.3797

                     16                     17                     18
                      A                      A                      A
 Frequencies --    412.1270               451.2810               463.0788
 Red. masses --      1.1768                 1.2271                 2.4879
 Frc consts  --      0.1178                 0.1472                 0.3143
 IR Inten    --     66.8085               124.1875                10.7710

                     19                     20                     21
                      A                      A                      A
 Frequencies --    478.8236               482.8334               498.1466
 Red. masses --      3.0323                 1.2350                 1.1855
 Frc consts  --      0.4096                 0.1696                 0.1733
 IR Inten    --     27.7369                95.4600                90.8675

                     22                     23                     24
                      A                      A                      A
 Frequencies --    537.0783               604.1046               702.8298
 Red. masses --      2.7711                 3.3846                 3.3521
 Frc consts  --      0.4710                 0.7277                 0.9756
 IR Inten    --     52.5030                41.4592                59.4848

                     25                     26                     27
                      A                      A                      A
 Frequencies --    758.7477               858.5081               912.2255
 Red. masses --      4.7383                 3.1307                 2.2728
 Frc consts  --      1.6072                 1.3595                 1.1143
 IR Inten    --     21.7106                19.1621                 8.1798

                     28                     29                     30
                      A                      A                      A
 Frequencies --    928.3318               997.2788              1058.9138
 Red. masses --      2.7751                 2.1601                 2.6993
 Frc consts  --      1.4091                 1.2658                 1.7833
 IR Inten    --     40.5671                15.2602                 4.5308

                     31                     32                     33
                      A                      A                      A
 Frequencies --   1062.2878              1090.5776              1102.2160
 Red. masses --      2.6425                 4.6937                 3.2904
 Frc consts  --      1.7569                 3.2891                 2.3552
 IR Inten    --     19.9351               158.0792                24.8866

                     34                     35                     36
                      A                      A                      A
 Frequencies --   1112.3665              1118.3406              1138.2547
 Red. masses --      2.8182                 2.4866                 2.9813
 Frc consts  --      2.0545                 1.8324                 2.2758
 IR Inten    --    144.6447                14.2198                79.1991

                     37                     38                     39
                      A                      A                      A
 Frequencies --   1146.1148              1159.0997              1207.8583
 Red. masses --      2.6192                 2.6835                 1.1026
 Frc consts  --      2.0271                 2.1242                 0.9477
 IR Inten    --     25.0553                64.6152                56.7569

                     40                     41                     42
                      A                      A                      A
 Frequencies --   1230.4428              1245.6926              1255.8009
 Red. masses --      1.1688                 1.2158                 1.2481
 Frc consts  --      1.0426                 1.1116                 1.1597
 IR Inten    --     14.7846                 8.5042                18.5241

                     43                     44                     45
                      A                      A                      A
 Frequencies --   1269.3429              1281.5475              1287.4896
 Red. masses --      1.1950                 1.0811                 1.1392
 Frc consts  --      1.1344                 1.0461                 1.1126
 IR Inten    --     40.5377                 9.9041                16.2033

                     46                     47                     48
                      A                      A                      A
 Frequencies --   1331.8824              1349.7329              1383.6540
 Red. masses --      1.2707                 1.3010                 1.2368
 Frc consts  --      1.3281                 1.3964                 1.3951
 IR Inten    --     11.0567                69.5167                24.0828

                     49                     50                     51
                      A                      A                      A
 Frequencies --   1385.6292              1408.9602              1411.5195
 Red. masses --      1.2349                 1.4077                 1.3087
 Frc consts  --      1.3969                 1.6465                 1.5363
 IR Inten    --     37.8621                 4.0953                19.0880

                     52                     53                     54
                      A                      A                      A
 Frequencies --   1430.7452              1434.0738              1459.1273
 Red. masses --      1.3866                 1.4332                 1.6350
 Frc consts  --      1.6723                 1.7366                 2.0509
 IR Inten    --     39.2507                35.6996                 8.8885

                     55                     56                     57
                      A                      A                      A
 Frequencies --   1474.9796              1480.4496              1513.5780
 Red. masses --      1.6763                 1.7243                 1.0931
 Frc consts  --      2.1487                 2.2266                 1.4754
 IR Inten    --      8.3994                 9.6205                 6.6642

                     58                     59                     60
                      A                      A                      A
 Frequencies --   1518.9466              3011.4081              3021.3467
 Red. masses --      1.0857                 1.0789                 1.0837
 Frc consts  --      1.4759                 5.7648                 5.8287
 IR Inten    --      5.1661                 7.8426                19.8044

                     61                     62                     63
                      A                      A                      A
 Frequencies --   3023.6348              3047.8962              3063.6874
 Red. masses --      1.0675                 1.0586                 1.0857
 Frc consts  --      5.7501                 5.7938                 6.0041
 IR Inten    --     47.5782                27.7865                29.1493

                     64                     65                     66
                      A                      A                      A
 Frequencies --   3075.6259              3099.0833              3105.5364
 Red. masses --      1.0851                 1.1002                 1.1067
 Frc consts  --      6.0477                 6.2256                 6.2884
 IR Inten    --     16.9672                30.5333                31.4323

                     67                     68                     69
                      A                      A                      A
 Frequencies --   3828.0393              3861.4012              3864.8709
 Red. masses --      1.0650                 1.0654                 1.0655
 Frc consts  --      9.1953                 9.3599                 9.3772
 IR Inten    --     76.5459               137.4855                27.9287

                     70                     71                     72
                      A                      A                      A
 Frequencies --   3880.1448              3946.1240              3946.5289
 Red. masses --      1.0656                 1.0668                 1.0668
 Frc consts  --      9.4527                 9.7877                 9.7895
 IR Inten    --     67.8113                63.3723                45.8281

 - Thermochemistry -
 -------------------
 Temperature   298.150 Kelvin.  Pressure   1.00000 Atm.
 Atom     1 has atomic number  6 and mass  12.00000

 Molecular mass:   182.07904 amu.
 Principal axes and moments of inertia in atomic units:
                           1         2         3
     Eigenvalues --   914.325944237.786534530.77936
           X            1.00000  -0.00028   0.00248
           Y            0.00030   0.99997  -0.00728
           Z           -0.00248   0.00729   0.99997
 This molecule is an asymmetric top.
 Rotational symmetry number  1.
 Warning -- assumption of classical behavior for rotation
           may cause significant error
 Rotational temperatures (Kelvin)      0.09473     0.02044     0.01912
 Rotational constants (GHZ):           1.97385     0.42587     0.39833
 Zero-point vibrational energy     581649.8 (Joules/Mol)
                                  139.01764 (Kcal/Mol)
 Warning -- explicit consideration of  23 degrees of freedom as
           vibrations may cause significant error
 Vibrational temperatures:     71.38    88.52   112.68   179.14   195.40
          (Kelvin)            209.85   271.89   333.81   349.11   365.08
                              375.49   416.23   442.36   458.23   495.94
                              592.96   649.29   666.27   688.92   694.69
                              716.72   772.74   869.17  1011.22  1091.67
                             1235.20  1312.49  1335.66  1434.86  1523.54
                             1528.40  1569.10  1585.84  1600.45  1609.04
                             1637.69  1649.00  1667.69  1737.84  1770.33
                             1792.27  1806.82  1826.30  1843.86  1852.41
                             1916.28  1941.96  1990.77  1993.61  2027.18
                             2030.86  2058.52  2063.31  2099.36  2122.17
                             2130.04  2177.70  2185.43  4332.74  4347.04
                             4350.34  4385.24  4407.96  4425.14  4458.89
                             4468.17  5507.69  5555.70  5560.69  5582.66
                             5677.59  5678.17

 Zero-point correction=                           0.221539 (Hartree/Particle)
 Thermal correction to Energy=                    0.235627
 Thermal correction to Enthalpy=                  0.236572
 Thermal correction to Gibbs Free Energy=         0.181098
 Sum of electronic and zero-point Energies=           -688.257987
 Sum of electronic and thermal Energies=              -688.243899
 Sum of electronic and thermal Enthalpies=            -688.242955
 Sum of electronic and thermal Free Energies=         -688.298428

                     E (Thermal)             CV                S
                      KCal/Mol        Cal/Mol-Kelvin    Cal/Mol-Kelvin
 Total                  147.858             51.655            116.754
 Electronic               0.000              0.000              0.000
 Translational            0.889              2.981             41.504
 Rotational               0.889              2.981             31.241
 Vibrational            146.081             45.694             44.010
 Vibration     1          0.595              1.978              4.833
 Vibration     2          0.597              1.973              4.408
 Vibration     3          0.600              1.964              3.933
 Vibration     4          0.610              1.928              3.029
 Vibration     5          0.614              1.918              2.862
 Vibration     6          0.617              1.907              2.726
 Vibration     7          0.633              1.855              2.238
 Vibration     8          0.653              1.792              1.863
 Vibration     9          0.659              1.775              1.783
 Vibration    10          0.665              1.756              1.704
 Vibration    11          0.669              1.744              1.655
 Vibration    12          0.686              1.694              1.478
 Vibration    13          0.697              1.660              1.376
 Vibration    14          0.705              1.638              1.318
 Vibration    15          0.723              1.586              1.190
 Vibration    16          0.776              1.444              0.919
 Vibration    17          0.810              1.358              0.792
 Vibration    18          0.821              1.332              0.757
 Vibration    19          0.835              1.297              0.713
 Vibration    20          0.839              1.288              0.702
 Vibration    21          0.854              1.254              0.663
 Vibration    22          0.892              1.168              0.572
 Vibration    23          0.963              1.023              0.443

                           ! Non-Optimized Parameters !
 Normal termination of Gaussian 16 at Wed Sep 27 12:09:43 2023.
