 Gaussian 16, Revision C.01,
 Gaussian 16:  ES64L-G16RevC.01  3-Jul-2019

 ---------------------------------------------
 # opt freq wb97xd/def2tzvpp geom=connectivity
 ---------------------------------------------

 --------------------------------
 Mannitol Conformer Optimziations
 --------------------------------
 Symbolic Z-matrix:
 Charge =  0 Multiplicity = 1

 SCF Done:  E(RwB97XD) =  -688.469915681     A.U. after   14 cycles
 SCF Done:  E(RwB97XD) =  -688.478802304     A.U. after   12 cycles
 SCF Done:  E(RwB97XD) =  -688.479187761     A.U. after   11 cycles
 SCF Done:  E(RwB97XD) =  -688.480249608     A.U. after   11 cycles
 SCF Done:  E(RwB97XD) =  -688.480803583     A.U. after   12 cycles
 SCF Done:  E(RwB97XD) =  -688.480933584     A.U. after   11 cycles
 SCF Done:  E(RwB97XD) =  -688.481015036     A.U. after   11 cycles
 SCF Done:  E(RwB97XD) =  -688.481070260     A.U. after   11 cycles
 SCF Done:  E(RwB97XD) =  -688.481093953     A.U. after   10 cycles
 SCF Done:  E(RwB97XD) =  -688.481109197     A.U. after    9 cycles
 SCF Done:  E(RwB97XD) =  -688.481113646     A.U. after    8 cycles
 SCF Done:  E(RwB97XD) =  -688.481114820     A.U. after    8 cycles
 SCF Done:  E(RwB97XD) =  -688.481115266     A.U. after    8 cycles
 SCF Done:  E(RwB97XD) =  -688.481115322     A.U. after    6 cycles
 Optimization completed.
    -- Stationary point found.
 Normal termination of Gaussian 16 at Wed Sep 27 11:46:27 2023.

 ----------------------------------------------------------------------
 #N Geom=AllCheck Guess=TCheck SCRF=Check GenChk RwB97XD/def2TZVPP Freq
 ----------------------------------------------------------------------

 Structure from the checkpoint file:  "MannitolConformerOpt_7.chk"
 --------------------------------
 Mannitol Conformer Optimziations
 --------------------------------
 Charge =  0 Multiplicity = 1

                         Standard orientation:
 ---------------------------------------------------------------------
 Center     Atomic      Atomic             Coordinates (Angstroms)
 Number     Number       Type             X           Y           Z
 ---------------------------------------------------------------------
      1          6           0       -0.650475    0.248380   -0.638528
      2          6           0        0.476659    0.883408    0.168589
      3          6           0       -1.376842   -0.903829    0.060437
      4          6           0        1.617006   -0.050759    0.568134
      5          1           0        0.060914    1.301646    1.093122
      6          1           0       -0.231584   -0.152511   -1.567948
      7          6           0       -2.279123   -0.451630    1.210500
      8          1           0       -0.620788   -1.582147    0.463587
      9          6           0        2.211262   -0.830392   -0.592484
     10          1           0        1.254082   -0.761469    1.319542
     11          1           0       -1.729415    0.206574    1.892822
     12          1           0       -2.595776   -1.328738    1.774158
     13          1           0        2.455351   -0.142638   -1.407050
     14          1           0        1.491983   -1.570531   -0.955508
     15          8           0       -3.454869    0.161886    0.732108
     16          1           0       -3.174970    0.913002    0.198883
     17          8           0       -2.123485   -1.650407   -0.870306
     18          1           0       -2.990263   -1.237858   -0.921153
     19          8           0       -1.598705    1.255627   -0.961018
     20          1           0       -1.106376    2.018635   -1.271023
     21          8           0        0.967427    1.938514   -0.638775
     22          1           0        1.748411    2.284064   -0.200206
     23          8           0        2.600953    0.784793    1.147561
     24          1           0        3.418620    0.281795    1.165325
     25          8           0        3.376751   -1.462794   -0.088465
     26          1           0        3.884301   -1.821846   -0.813278
 ---------------------------------------------------------------------

 SCF Done:  E(RwB97XD) =  -688.481115322     A.U. after    1 cycles

 The electronic state is 1-A.
 Alpha  occ. eigenvalues --  -19.27648 -19.26542 -19.26471 -19.26368 -19.24437
 Alpha  occ. eigenvalues --  -19.24361 -10.35196 -10.34943 -10.34725 -10.34439
 Alpha  occ. eigenvalues --  -10.34011 -10.33036  -1.17201  -1.15920  -1.14550
 Alpha  occ. eigenvalues --   -1.13294  -1.12177  -1.11190  -0.90365  -0.85371
 Alpha  occ. eigenvalues --   -0.80664  -0.76794  -0.72319  -0.67972  -0.64989
 Alpha  occ. eigenvalues --   -0.64829  -0.62157  -0.60545  -0.58867  -0.58318
 Alpha  occ. eigenvalues --   -0.57218  -0.55733  -0.54754  -0.52313  -0.52158
 Alpha  occ. eigenvalues --   -0.50895  -0.48613  -0.47259  -0.46895  -0.45100
 Alpha  occ. eigenvalues --   -0.44855  -0.42883  -0.41180  -0.39178  -0.38399
 Alpha  occ. eigenvalues --   -0.38113  -0.37336  -0.36965  -0.35142
 Alpha virt. eigenvalues --    0.08745   0.10512   0.11887   0.12458   0.13748
 Alpha virt. eigenvalues --    0.14823   0.15362   0.16631   0.17361   0.18834
 Alpha virt. eigenvalues --    0.19488   0.20376   0.21016   0.21143   0.22749

 Mulliken charges:
               1
     1  C    0.120477
     2  C    0.049059
     3  C    0.141589
     4  C    0.144844
     5  H    0.103016
     6  H    0.096380
     7  C    0.009195
     8  H    0.070090
     9  C   -0.040447
    10  H    0.067289
    11  H    0.067125
    12  H    0.087583
    13  H    0.100066
    14  H    0.081008
    15  O   -0.378075
    16  H    0.204619
    17  O   -0.367670
    18  H    0.188980
    19  O   -0.378595
    20  H    0.183660
    21  O   -0.382979
    22  H    0.190230
    23  O   -0.384175
    24  H    0.196691
    25  O   -0.345849
    26  H    0.175888
 Sum of Mulliken charges =  -0.00000

 Dipole moment (field-independent basis, Debye):
    X=              3.8011    Y=              0.1133    Z=             -0.5875  Tot=              3.8479
 Quadrupole moment (field-independent basis, Debye-Ang):
   XX=            -73.6354   YY=            -72.6333   ZZ=            -72.4347
   XY=             -5.1624   XZ=             -4.4539   YZ=             -0.6872

  Exact polarizability:     108.961      -0.692      90.351      -0.303      -0.035      85.879
 Approx polarizability:     107.526      -0.694     102.002       1.675      -0.648      99.410

                      1                      2                      3
                      A                      A                      A
 Frequencies --     29.7523                57.1401               102.4906
 Red. masses --      5.1312                 5.7314                 3.6941
 Frc consts  --      0.0027                 0.0110                 0.0229
 IR Inten    --      0.3872                 2.1792                 8.7099

                      4                      5                      6
                      A                      A                      A
 Frequencies --    120.5135               142.3227               176.6443
 Red. masses --      4.6851                 4.3623                 3.8860
 Frc consts  --      0.0401                 0.0521                 0.0714
 IR Inten    --      1.1438                 6.2948                 5.0489

                      7                      8                      9
                      A                      A                      A
 Frequencies --    201.4601               239.7999               253.3459
 Red. masses --      4.8363                 3.7782                 1.2576
 Frc consts  --      0.1156                 0.1280                 0.0476
 IR Inten    --      9.2831                 7.2801                96.2593

                     10                     11                     12
                      A                      A                      A
 Frequencies --    257.8026               301.1743               315.2536
 Red. masses --      3.2560                 3.0706                 3.8130
 Frc consts  --      0.1275                 0.1641                 0.2233
 IR Inten    --      7.6868                21.0032                 9.1379

                     13                     14                     15
                      A                      A                      A
 Frequencies --    334.6803               347.8436               405.1323
 Red. masses --      3.8192                 5.0828                 3.2727
 Frc consts  --      0.2520                 0.3623                 0.3165
 IR Inten    --     15.9148                10.1999                 3.4734

                     16                     17                     18
                      A                      A                      A
 Frequencies --    420.5751               435.4579               461.4354
 Red. masses --      1.2646                 1.2315                 1.1369
 Frc consts  --      0.1318                 0.1376                 0.1426
 IR Inten    --     80.8784                84.3999                44.3961

                     19                     20                     21
                      A                      A                      A
 Frequencies --    468.6971               520.3443               552.6251
 Red. masses --      1.3035                 2.7819                 3.0099
 Frc consts  --      0.1687                 0.4438                 0.5416
 IR Inten    --    108.4610                 2.9644                23.4029

                     22                     23                     24
                      A                      A                      A
 Frequencies --    566.4652               635.5452               728.5366
 Red. masses --      3.1886                 1.1374                 3.6960
 Frc consts  --      0.6028                 0.2707                 1.1558
 IR Inten    --     31.6953               175.7664                35.7235

                     25                     26                     27
                      A                      A                      A
 Frequencies --    799.3711               833.5894               872.6111
 Red. masses --      3.9587                 3.1838                 2.7617
 Frc consts  --      1.4904                 1.3035                 1.2390
 IR Inten    --     31.2556                14.0873                21.0368

                     28                     29                     30
                      A                      A                      A
 Frequencies --    969.0154               978.1355               989.9540
 Red. masses --      2.1449                 2.0242                 2.3909
 Frc consts  --      1.1867                 1.1411                 1.3805
 IR Inten    --     20.1146                 2.6370                 2.8337

                     31                     32                     33
                      A                      A                      A
 Frequencies --   1063.5675              1084.6643              1099.6069
 Red. masses --      2.6350                 2.7009                 5.4092
 Frc consts  --      1.7561                 1.8722                 3.8535
 IR Inten    --     24.2130                28.1067               216.5596

                     34                     35                     36
                      A                      A                      A
 Frequencies --   1116.0903              1126.6905              1140.6908
 Red. masses --      3.0990                 3.1783                 2.7052
 Frc consts  --      2.2744                 2.3771                 2.0739
 IR Inten    --    177.0807                18.6295                88.3144

                     37                     38                     39
                      A                      A                      A
 Frequencies --   1152.2646              1166.0851              1210.2244
 Red. masses --      2.7206                 2.7713                 1.1038
 Frc consts  --      2.1282                 2.2202                 0.9525
 IR Inten    --      9.5578                 6.6098               105.6838

                     40                     41                     42
                      A                      A                      A
 Frequencies --   1240.4053              1253.5292              1266.6206
 Red. masses --      1.1933                 1.1849                 1.2875
 Frc consts  --      1.0817                 1.0970                 1.2170
 IR Inten    --     15.1544                20.5826                25.6649

                     43                     44                     45
                      A                      A                      A
 Frequencies --   1278.6403              1296.4748              1299.9083
 Red. masses --      1.1604                 1.2592                 1.2361
 Frc consts  --      1.1178                 1.2470                 1.2307
 IR Inten    --     35.4430                22.7603                19.5325

                     46                     47                     48
                      A                      A                      A
 Frequencies --   1354.7861              1373.1813              1392.4639
 Red. masses --      1.2402                 1.2395                 1.3232
 Frc consts  --      1.3412                 1.3771                 1.5116
 IR Inten    --     28.9849                11.1818                 6.3779

                     49                     50                     51
                      A                      A                      A
 Frequencies --   1399.8834              1407.5344              1415.8996
 Red. masses --      1.3668                 1.2652                 1.4398
 Frc consts  --      1.5781                 1.4768                 1.7007
 IR Inten    --     17.9423                 6.4839                14.7207

                     52                     53                     54
                      A                      A                      A
 Frequencies --   1432.0567              1447.0680              1459.0419
 Red. masses --      1.3009                 1.4757                 1.5591
 Frc consts  --      1.5718                 1.8206                 1.9556
 IR Inten    --     40.4703                56.7036                46.4026

                     55                     56                     57
                      A                      A                      A
 Frequencies --   1467.3881              1476.7814              1512.8182
 Red. masses --      1.3340                 1.6151                 1.0829
 Frc consts  --      1.6924                 2.0753                 1.4603
 IR Inten    --     37.7777                14.6292                 8.1088

                     58                     59                     60
                      A                      A                      A
 Frequencies --   1524.8180              3017.9845              3029.4634
 Red. masses --      1.0835                 1.0805                 1.0778
 Frc consts  --      1.4842                 5.7985                 5.8281
 IR Inten    --      6.1649                 2.2932                38.4883

                     61                     62                     63
                      A                      A                      A
 Frequencies --   3032.0312              3035.7189              3046.7281
 Red. masses --      1.0739                 1.0621                 1.0806
 Frc consts  --      5.8169                 5.7669                 5.9102
 IR Inten    --     36.5334                25.4488                70.9902

                     64                     65                     66
                      A                      A                      A
 Frequencies --   3075.7278              3088.8514              3116.9897
 Red. masses --      1.0859                 1.1075                 1.0963
 Frc consts  --      6.0524                 6.2255                 6.2756
 IR Inten    --     39.3966                28.3615                29.0984

                     67                     68                     69
                      A                      A                      A
 Frequencies --   3806.9705              3844.9121              3861.9331
 Red. masses --      1.0658                 1.0653                 1.0654
 Frc consts  --      9.1009                 9.2784                 9.3624
 IR Inten    --    130.4382                76.7440               124.6034

                     70                     71                     72
                      A                      A                      A
 Frequencies --   3865.6147              3878.5448              3944.5502
 Red. masses --      1.0656                 1.0655                 1.0669
 Frc consts  --      9.3815                 9.4438                 9.7804
 IR Inten    --     43.5922                59.5933                62.9694

 - Thermochemistry -
 -------------------
 Temperature   298.150 Kelvin.  Pressure   1.00000 Atm.
 Atom     1 has atomic number  6 and mass  12.00000

 Molecular mass:   182.07904 amu.
 Principal axes and moments of inertia in atomic units:
                           1         2         3
     Eigenvalues --  1222.619873489.309133897.68077
           X            0.99995  -0.00475  -0.00918
           Y            0.00473   0.99999  -0.00183
           Z            0.00919   0.00178   0.99996
 This molecule is an asymmetric top.
 Rotational symmetry number  1.
 Warning -- assumption of classical behavior for rotation
           may cause significant error
 Rotational temperatures (Kelvin)      0.07084     0.02482     0.02222
 Rotational constants (GHZ):           1.47613     0.51722     0.46303
 Zero-point vibrational energy     583914.7 (Joules/Mol)
                                  139.55897 (Kcal/Mol)
 Warning -- explicit consideration of  22 degrees of freedom as
           vibrations may cause significant error
 Vibrational temperatures:     42.81    82.21   147.46   173.39   204.77
          (Kelvin)            254.15   289.86   345.02   364.51   370.92
                              433.32   453.58   481.53   500.47   582.89
                              605.11   626.53   663.90   674.35   748.66
                              795.10   815.02   914.41  1048.20  1150.12
                             1199.35  1255.49  1394.20  1407.32  1424.32
                             1530.24  1560.59  1582.09  1605.81  1621.06
                             1641.20  1657.85  1677.74  1741.24  1784.67
                             1803.55  1822.38  1839.68  1865.34  1870.28
                             1949.24  1975.70  2003.45  2014.12  2025.13
                             2037.16  2060.41  2082.01  2099.24  2111.24
                             2124.76  2176.61  2193.87  4342.21  4358.72
                             4362.42  4367.72  4383.56  4425.29  4444.17
                             4484.65  5477.38  5531.97  5556.46  5561.76
                             5580.36  5675.33

 Zero-point correction=                           0.222401 (Hartree/Particle)
 Thermal correction to Energy=                    0.236076
 Thermal correction to Enthalpy=                  0.237020
 Thermal correction to Gibbs Free Energy=         0.182171
 Sum of electronic and zero-point Energies=           -688.258714
 Sum of electronic and thermal Energies=              -688.245039
 Sum of electronic and thermal Enthalpies=            -688.244095
 Sum of electronic and thermal Free Energies=         -688.298944

                     E (Thermal)             CV                S
                      KCal/Mol        Cal/Mol-Kelvin    Cal/Mol-Kelvin
 Total                  148.140             50.837            115.441
 Electronic               0.000              0.000              0.000
 Translational            0.889              2.981             41.504
 Rotational               0.889              2.981             31.187
 Vibrational            146.363             44.875             42.750
 Vibration     1          0.594              1.984              5.846
 Vibration     2          0.596              1.975              4.554
 Vibration     3          0.605              1.947              3.406
 Vibration     4          0.609              1.932              3.092
 Vibration     5          0.616              1.911              2.772
 Vibration     6          0.628              1.871              2.364
 Vibration     7          0.638              1.838              2.120
 Vibration     8          0.657              1.780              1.804
 Vibration     9          0.665              1.757              1.707
 Vibration    10          0.667              1.750              1.677
 Vibration    11          0.693              1.671              1.410
 Vibration    12          0.703              1.645              1.335
 Vibration    13          0.716              1.606              1.237
 Vibration    14          0.725              1.580              1.176
 Vibration    15          0.770              1.459              0.944
 Vibration    16          0.783              1.426              0.890
 Vibration    17          0.796              1.393              0.841
 Vibration    18          0.819              1.336              0.762
 Vibration    19          0.826              1.319              0.741
 Vibration    20          0.875              1.205              0.609
 Vibration    21          0.908              1.134              0.539
 Vibration    22          0.922              1.104              0.511

 Optimization completed.
    -- Stationary point found.
 Normal termination of Gaussian 16 at Wed Sep 27 12:24:45 2023.
