 Gaussian 16, Revision C.01,
 Gaussian 16:  ES64L-G16RevC.01  3-Jul-2019

 ---------------------------------------------
 # opt freq wb97xd/def2tzvpp geom=connectivity
 ---------------------------------------------

 --------------------------------
 Mannitol Conformer Optimziations
 --------------------------------
 Symbolic Z-matrix:
 Charge =  0 Multiplicity = 1

 SCF Done:  E(RwB97XD) =  -688.467626446     A.U. after   13 cycles
 SCF Done:  E(RwB97XD) =  -688.477222309     A.U. after   12 cycles
 SCF Done:  E(RwB97XD) =  -688.477468665     A.U. after   11 cycles
 SCF Done:  E(RwB97XD) =  -688.477682558     A.U. after   12 cycles
 SCF Done:  E(RwB97XD) =  -688.478552484     A.U. after   11 cycles
 SCF Done:  E(RwB97XD) =  -688.478661511     A.U. after   12 cycles
 SCF Done:  E(RwB97XD) =  -688.478778145     A.U. after   10 cycles
 SCF Done:  E(RwB97XD) =  -688.478815925     A.U. after   10 cycles
 SCF Done:  E(RwB97XD) =  -688.478845809     A.U. after   10 cycles
 SCF Done:  E(RwB97XD) =  -688.478867319     A.U. after   10 cycles
 SCF Done:  E(RwB97XD) =  -688.481535853     A.U. after    9 cycles
 SCF Done:  E(RwB97XD) =  -688.481873061     A.U. after   11 cycles
 SCF Done:  E(RwB97XD) =  -688.481965521     A.U. after   10 cycles
 SCF Done:  E(RwB97XD) =  -688.481984143     A.U. after   10 cycles
 SCF Done:  E(RwB97XD) =  -688.481990475     A.U. after    8 cycles
 SCF Done:  E(RwB97XD) =  -688.481992797     A.U. after    8 cycles
 SCF Done:  E(RwB97XD) =  -688.481994627     A.U. after    8 cycles
 SCF Done:  E(RwB97XD) =  -688.481995332     A.U. after    8 cycles
 SCF Done:  E(RwB97XD) =  -688.481995454     A.U. after    7 cycles
 Optimization completed.
    -- Stationary point found.
 Normal termination of Gaussian 16 at Wed Sep 27 13:02:37 2023.

 ----------------------------------------------------------------------
 #N Geom=AllCheck Guess=TCheck SCRF=Check GenChk RwB97XD/def2TZVPP Freq
 ----------------------------------------------------------------------

 Structure from the checkpoint file:  "MannitolConformerOpt_14.chk"
 --------------------------------
 Mannitol Conformer Optimziations
 --------------------------------
 Charge =  0 Multiplicity = 1

                         Standard orientation:
 ---------------------------------------------------------------------
 Center     Atomic      Atomic             Coordinates (Angstroms)
 Number     Number       Type             X           Y           Z
 ---------------------------------------------------------------------
      1          6           0        0.636448   -0.653985   -0.418700
      2          6           0       -0.349051    0.503267   -0.590061
      3          6           0        2.085042   -0.309161   -0.808874
      4          6           0       -1.810471    0.062206   -0.661686
      5          1           0       -0.126776    0.982513   -1.552725
      6          1           0        0.313878   -1.447061   -1.098429
      7          6           0        2.654653    0.913746   -0.088303
      8          1           0        2.108821   -0.094054   -1.881068
      9          6           0       -2.293489   -0.758035    0.523640
     10          1           0       -1.948925   -0.526973   -1.576178
     11          1           0        3.738399    0.888488   -0.199771
     12          1           0        2.282139    1.824743   -0.565372
     13          1           0       -2.029840   -0.253157    1.456367
     14          1           0       -1.825443   -1.743002    0.519336
     15          8           0        2.366046    0.944460    1.302342
     16          1           0        1.533540    1.420600    1.383998
     17          8           0        2.889767   -1.451370   -0.620297
     18          1           0        2.607461   -1.866193    0.198278
     19          8           0        0.605902   -1.225959    0.874053
     20          1           0        1.061240   -0.611834    1.461302
     21          8           0       -0.191482    1.452837    0.449422
     22          1           0       -0.969567    2.016828    0.413374
     23          8           0       -2.557875    1.262908   -0.747748
     24          1           0       -3.462555    1.041191   -0.512178
     25          8           0       -3.704708   -0.851811    0.373677
     26          1           0       -4.082362   -1.228838    1.165371
 ---------------------------------------------------------------------

 SCF Done:  E(RwB97XD) =  -688.481995454     A.U. after    1 cycles

 The electronic state is 1-A.
 Alpha  occ. eigenvalues --  -19.27125 -19.27091 -19.26452 -19.25681 -19.24923
 Alpha  occ. eigenvalues --  -19.24193 -10.35235 -10.34892 -10.34753 -10.33855
 Alpha  occ. eigenvalues --  -10.33601 -10.32593  -1.17265  -1.15645  -1.14373
 Alpha  occ. eigenvalues --   -1.12642  -1.12330  -1.11395  -0.89757  -0.85610
 Alpha  occ. eigenvalues --   -0.80828  -0.76125  -0.71016  -0.69408  -0.64758
 Alpha  occ. eigenvalues --   -0.62419  -0.61996  -0.61525  -0.60322  -0.58236
 Alpha  occ. eigenvalues --   -0.55910  -0.55427  -0.53834  -0.52561  -0.51617
 Alpha  occ. eigenvalues --   -0.50219  -0.50006  -0.47061  -0.45827  -0.45450
 Alpha  occ. eigenvalues --   -0.44295  -0.42134  -0.41444  -0.39557  -0.38721
 Alpha  occ. eigenvalues --   -0.38206  -0.37961  -0.37032  -0.33939
 Alpha virt. eigenvalues --    0.09042   0.09967   0.11808   0.13476   0.13951
 Alpha virt. eigenvalues --    0.15730   0.16743   0.17425   0.18030   0.18551
 Alpha virt. eigenvalues --    0.19277   0.19892   0.20461   0.21381   0.22048

 Mulliken charges:
               1
     1  C    0.154878
     2  C    0.070522
     3  C    0.132102
     4  C    0.126164
     5  H    0.088889
     6  H    0.092583
     7  C    0.033890
     8  H    0.048473
     9  C   -0.006609
    10  H    0.065602
    11  H    0.089834
    12  H    0.069402
    13  H    0.085704
    14  H    0.091128
    15  O   -0.386593
    16  H    0.202019
    17  O   -0.360533
    18  H    0.184221
    19  O   -0.404121
    20  H    0.193561
    21  O   -0.392883
    22  H    0.183991
    23  O   -0.388998
    24  H    0.200365
    25  O   -0.347770
    26  H    0.174177
 Sum of Mulliken charges =  -0.00000

 Dipole moment (field-independent basis, Debye):
    X=             -3.1847    Y=              0.5637    Z=              0.3849  Tot=              3.2570
 Quadrupole moment (field-independent basis, Debye-Ang):
   XX=            -75.8991   YY=            -72.8762   ZZ=            -70.4286
   XY=              4.9966   XZ=             -7.5357   YZ=             -2.4148

  Exact polarizability:     109.515       0.703      89.311      -2.084      -1.251      86.292
 Approx polarizability:     104.762      -1.452     101.320      -1.020      -1.041     103.128

                      1                      2                      3
                      A                      A                      A
 Frequencies --     49.6586                87.8512               114.1499
 Red. masses --      5.3997                 5.1635                 4.3415
 Frc consts  --      0.0078                 0.0235                 0.0333
 IR Inten    --      1.7404                 2.7110                 7.4977

                      4                      5                      6
                      A                      A                      A
 Frequencies --    159.0899               163.8643               173.7230
 Red. masses --      4.7787                 4.1905                 4.1029
 Frc consts  --      0.0713                 0.0663                 0.0730
 IR Inten    --      6.7218                 3.2753                 5.5517

                      7                      8                      9
                      A                      A                      A
 Frequencies --    204.0084               251.0026               258.7355
 Red. masses --      3.7424                 3.6773                 1.3424
 Frc consts  --      0.0918                 0.1365                 0.0529
 IR Inten    --      4.7693                12.5019                91.5936

                     10                     11                     12
                      A                      A                      A
 Frequencies --    275.4042               294.1541               311.1693
 Red. masses --      4.0324                 4.0391                 3.3257
 Frc consts  --      0.1802                 0.2059                 0.1897
 IR Inten    --      9.2219                11.0710                20.7908

                     13                     14                     15
                      A                      A                      A
 Frequencies --    341.1881               355.5747               390.3784
 Red. masses --      4.0344                 5.5149                 2.0583
 Frc consts  --      0.2767                 0.4108                 0.1848
 IR Inten    --      3.2783                 5.5185                32.8707

                     16                     17                     18
                      A                      A                      A
 Frequencies --    400.6661               485.3092               499.4001
 Red. masses --      1.9784                 1.1172                 2.2763
 Frc consts  --      0.1871                 0.1550                 0.3345
 IR Inten    --     31.9103                76.0128                20.3316

                     19                     20                     21
                      A                      A                      A
 Frequencies --    519.4099               539.5097               555.5667
 Red. masses --      1.3387                 1.1236                 2.4556
 Frc consts  --      0.2128                 0.1927                 0.4466
 IR Inten    --     74.2167                67.7675                45.0405

                     22                     23                     24
                      A                      A                      A
 Frequencies --    690.5945               713.0160               745.3019
 Red. masses --      1.1582                 3.4532                 4.6033
 Frc consts  --      0.3255                 1.0344                 1.5065
 IR Inten    --    264.8833                39.8444                19.2487

                     25                     26                     27
                      A                      A                      A
 Frequencies --    814.8939               841.3818               863.8425
 Red. masses --      3.8259                 3.7955                 3.2535
 Frc consts  --      1.4969                 1.5831                 1.4304
 IR Inten    --     31.7501                 5.3203                22.0721

                     28                     29                     30
                      A                      A                      A
 Frequencies --    912.2085               947.8385               986.7403
 Red. masses --      2.8334                 1.8989                 2.2846
 Frc consts  --      1.3891                 1.0051                 1.3106
 IR Inten    --     19.0468                 6.2337                21.7332

                     31                     32                     33
                      A                      A                      A
 Frequencies --   1029.5323              1075.6807              1100.6749
 Red. masses --      2.0545                 3.6342                 3.4193
 Frc consts  --      1.2830                 2.4776                 2.4407
 IR Inten    --     35.4525                22.2088               125.1926

                     34                     35                     36
                      A                      A                      A
 Frequencies --   1103.8269              1131.8134              1138.4995
 Red. masses --      3.0485                 2.8901                 2.6089
 Frc consts  --      2.1885                 2.1813                 1.9923
 IR Inten    --     35.2140               112.7089                35.4449

                     37                     38                     39
                      A                      A                      A
 Frequencies --   1146.3396              1178.1931              1222.0164
 Red. masses --      2.8598                 3.0203                 1.0697
 Frc consts  --      2.2141                 2.4702                 0.9412
 IR Inten    --     97.9944                69.3788                19.8597

                     40                     41                     42
                      A                      A                      A
 Frequencies --   1231.7486              1262.7772              1273.4871
 Red. masses --      1.2140                 1.1815                 1.1000
 Frc consts  --      1.0852                 1.1100                 1.0511
 IR Inten    --     69.0717                 7.2153                31.1280

                     43                     44                     45
                      A                      A                      A
 Frequencies --   1284.5111              1303.7447              1326.2911
 Red. masses --      1.1775                 1.2378                 1.3656
 Frc consts  --      1.1447                 1.2396                 1.4153
 IR Inten    --      6.7667                26.5493                40.1660

                     46                     47                     48
                      A                      A                      A
 Frequencies --   1345.4997              1386.7198              1389.9477
 Red. masses --      1.3120                 1.5142                 1.2511
 Frc consts  --      1.3994                 1.7156                 1.4241
 IR Inten    --     14.8031                 4.8751                 8.5025

                     49                     50                     51
                      A                      A                      A
 Frequencies --   1404.7448              1414.9182              1424.0569
 Red. masses --      1.3210                 1.2366                 1.3841
 Frc consts  --      1.5359                 1.4586                 1.6537
 IR Inten    --      2.6738                15.1323                39.6060

                     52                     53                     54
                      A                      A                      A
 Frequencies --   1434.5530              1439.7863              1457.5366
 Red. masses --      1.2101                 1.3024                 1.5871
 Frc consts  --      1.4673                 1.5907                 1.9865
 IR Inten    --     17.7710                30.1634                37.8229

                     55                     56                     57
                      A                      A                      A
 Frequencies --   1466.5937              1479.9225              1503.6324
 Red. masses --      1.3434                 1.5898                 1.0789
 Frc consts  --      1.7024                 2.0515                 1.4372
 IR Inten    --     58.6902                21.6881                11.1791

                     58                     59                     60
                      A                      A                      A
 Frequencies --   1517.0115              3005.3192              3026.4993
 Red. masses --      1.0911                 1.0827                 1.0847
 Frc consts  --      1.4794                 5.7616                 5.8539
 IR Inten    --      7.0015                18.2728                34.3713

                     61                     62                     63
                      A                      A                      A
 Frequencies --   3047.7486              3056.6841              3062.8264
 Red. masses --      1.0691                 1.0596                 1.0805
 Frc consts  --      5.8507                 5.8330                 5.9718
 IR Inten    --      8.4106                23.5996                37.2669

                     64                     65                     66
                      A                      A                      A
 Frequencies --   3074.6569              3117.2421              3121.7095
 Red. masses --      1.0852                 1.1059                 1.1027
 Frc consts  --      6.0442                 6.3315                 6.3315
 IR Inten    --     49.4317                23.3257                26.6080

                     67                     68                     69
                      A                      A                      A
 Frequencies --   3789.0343              3817.5435              3836.0544
 Red. masses --      1.0658                 1.0654                 1.0650
 Frc consts  --      9.0155                 9.1481                 9.2340
 IR Inten    --    106.1333               251.0506                63.9102

                     70                     71                     72
                      A                      A                      A
 Frequencies --   3857.4149              3862.5243              3946.9902
 Red. masses --      1.0653                 1.0652                 1.0669
 Frc consts  --      9.3395                 9.3631                 9.7924
 IR Inten    --     78.3377                54.4235                60.3684

 - Thermochemistry -
 -------------------
 Temperature   298.150 Kelvin.  Pressure   1.00000 Atm.
 Atom     1 has atomic number  6 and mass  12.00000

 Molecular mass:   182.07904 amu.
 Principal axes and moments of inertia in atomic units:
                           1         2         3
     Eigenvalues --  1047.765953484.813263811.18464
           X            0.99991   0.01077  -0.00810
           Y           -0.01093   0.99973  -0.02063
           Z            0.00788   0.02072   0.99975
 This molecule is an asymmetric top.
 Rotational symmetry number  1.
 Warning -- assumption of classical behavior for rotation
           may cause significant error
 Rotational temperatures (Kelvin)      0.08267     0.02485     0.02273
 Rotational constants (GHZ):           1.72247     0.51789     0.47354
 Zero-point vibrational energy     586421.0 (Joules/Mol)
                                  140.15799 (Kcal/Mol)
 Warning -- explicit consideration of  21 degrees of freedom as
           vibrations may cause significant error
 Vibrational temperatures:     71.45   126.40   164.24   228.89   235.76
          (Kelvin)            249.95   293.52   361.14   372.26   396.25
                              423.22   447.70   490.89   511.59   561.67
                              576.47   698.25   718.53   747.32   776.23
                              799.34   993.61  1025.87  1072.32  1172.45
                             1210.56  1242.88  1312.46  1363.73  1419.70
                             1481.27  1547.66  1583.63  1588.16  1628.43
                             1638.05  1649.33  1695.16  1758.21  1772.21
                             1816.85  1832.26  1848.12  1875.80  1908.24
                             1935.87  1995.18  1999.82  2021.11  2035.75
                             2048.90  2064.00  2071.53  2097.07  2110.10
                             2129.28  2163.39  2182.64  4323.98  4354.46
                             4385.03  4397.89  4406.72  4423.75  4485.02
                             4491.44  5451.58  5492.59  5519.23  5549.96
                             5557.31  5678.84

 Zero-point correction=                           0.223356 (Hartree/Particle)
 Thermal correction to Energy=                    0.236571
 Thermal correction to Enthalpy=                  0.237515
 Thermal correction to Gibbs Free Energy=         0.184496
 Sum of electronic and zero-point Energies=           -688.258639
 Sum of electronic and thermal Energies=              -688.245425
 Sum of electronic and thermal Enthalpies=            -688.244481
 Sum of electronic and thermal Free Energies=         -688.297500

                     E (Thermal)             CV                S
                      KCal/Mol        Cal/Mol-Kelvin    Cal/Mol-Kelvin
 Total                  148.450             50.052            111.588
 Electronic               0.000              0.000              0.000
 Translational            0.889              2.981             41.504
 Rotational               0.889              2.981             31.010
 Vibrational            146.673             44.091             39.074
 Vibration     1          0.595              1.978              4.831
 Vibration     2          0.601              1.958              3.707
 Vibration     3          0.607              1.938              3.197
 Vibration     4          0.621              1.892              2.561
 Vibration     5          0.623              1.887              2.505
 Vibration     6          0.627              1.875              2.395
 Vibration     7          0.640              1.834              2.097
 Vibration     8          0.663              1.761              1.724
 Vibration     9          0.668              1.748              1.670
 Vibration    10          0.677              1.719              1.562
 Vibration    11          0.689              1.685              1.450
 Vibration    12          0.700              1.652              1.356
 Vibration    13          0.721              1.593              1.207
 Vibration    14          0.731              1.564              1.141
 Vibration    15          0.758              1.491              0.999
 Vibration    16          0.766              1.469              0.960
 Vibration    17          0.841              1.283              0.696
 Vibration    18          0.855              1.251              0.660
 Vibration    19          0.874              1.207              0.611
 Vibration    20          0.895              1.163              0.566
 Vibration    21          0.911              1.128              0.533

                           ! Non-Optimized Parameters !
 Normal termination of Gaussian 16 at Wed Sep 27 13:44:29 2023.
