 Gaussian 16, Revision C.01,
 Gaussian 16:  ES64L-G16RevC.01  3-Jul-2019

 ---------------------------------------------
 # opt freq wb97xd/def2tzvpp geom=connectivity
 ---------------------------------------------

 --------------------------------
 Mannitol Conformer Optimziations
 --------------------------------
 Symbolic Z-matrix:
 Charge =  0 Multiplicity = 1

 SCF Done:  E(RwB97XD) =  -688.471298720     A.U. after   14 cycles
 SCF Done:  E(RwB97XD) =  -688.479120021     A.U. after   12 cycles
 SCF Done:  E(RwB97XD) =  -688.479100634     A.U. after   12 cycles
 SCF Done:  E(RwB97XD) =  -688.480645399     A.U. after   11 cycles
 SCF Done:  E(RwB97XD) =  -688.480435573     A.U. after   11 cycles
 SCF Done:  E(RwB97XD) =  -688.480668512     A.U. after   11 cycles
 SCF Done:  E(RwB97XD) =  -688.480983439     A.U. after   10 cycles
 SCF Done:  E(RwB97XD) =  -688.480976604     A.U. after   10 cycles
 SCF Done:  E(RwB97XD) =  -688.480990658     A.U. after   11 cycles
 SCF Done:  E(RwB97XD) =  -688.481049184     A.U. after   10 cycles
 SCF Done:  E(RwB97XD) =  -688.481062859     A.U. after   10 cycles
 SCF Done:  E(RwB97XD) =  -688.481068327     A.U. after   10 cycles
 SCF Done:  E(RwB97XD) =  -688.481072416     A.U. after    8 cycles
 SCF Done:  E(RwB97XD) =  -688.481073844     A.U. after    8 cycles
 SCF Done:  E(RwB97XD) =  -688.481074660     A.U. after    8 cycles
 SCF Done:  E(RwB97XD) =  -688.481074834     A.U. after    7 cycles
 SCF Done:  E(RwB97XD) =  -688.481074897     A.U. after    6 cycles
 Optimization completed.
    -- Stationary point found.
 Normal termination of Gaussian 16 at Wed Sep 27 12:04:53 2023.

 ----------------------------------------------------------------------
 #N Geom=AllCheck Guess=TCheck SCRF=Check GenChk RwB97XD/def2TZVPP Freq
 ----------------------------------------------------------------------

 Structure from the checkpoint file:  "MannitolConformerOpt_20.chk"
 --------------------------------
 Mannitol Conformer Optimziations
 --------------------------------
 Charge =  0 Multiplicity = 1

                         Standard orientation:
 ---------------------------------------------------------------------
 Center     Atomic      Atomic             Coordinates (Angstroms)
 Number     Number       Type             X           Y           Z
 ---------------------------------------------------------------------
      1          6           0        0.449500   -0.397008   -0.844760
      2          6           0       -0.416173    0.598202   -0.063089
      3          6           0        1.899759   -0.442503   -0.344416
      4          6           0       -1.838157    0.801701   -0.606340
      5          1           0        0.058641    1.578628   -0.140764
      6          1           0        0.459236   -0.081157   -1.892488
      7          6           0        2.611027    0.898912   -0.271301
      8          1           0        2.461778   -1.081198   -1.028783
      9          6           0       -2.737197   -0.424524   -0.564168
     10          1           0       -1.751162    1.094450   -1.655600
     11          1           0        2.550377    1.412520   -1.232806
     12          1           0        2.131295    1.535363    0.482919
     13          1           0       -2.332484   -1.200506   -1.213756
     14          1           0       -3.730137   -0.126132   -0.910669
     15          8           0        3.976097    0.728277    0.020756
     16          1           0        4.031005    0.136064    0.773312
     17          8           0        1.964336   -1.100134    0.915812
     18          1           0        1.343118   -0.639238    1.494540
     19          8           0       -0.073289   -1.709209   -0.807341
     20          1           0        0.358225   -2.153184   -0.071967
     21          8           0       -0.438097    0.288635    1.327042
     22          1           0       -1.129124   -0.376073    1.450224
     23          8           0       -2.441666    1.895536    0.050348
     24          1           0       -2.391089    1.734727    0.994485
     25          8           0       -2.812041   -0.892559    0.782590
     26          1           0       -3.274968   -1.727309    0.802149
 ---------------------------------------------------------------------

 SCF Done:  E(RwB97XD) =  -688.481074897     A.U. after    1 cycles

 The electronic state is 1-A.
 Alpha  occ. eigenvalues --  -19.27849 -19.26436 -19.26033 -19.25801 -19.25272
 Alpha  occ. eigenvalues --  -19.24663 -10.34811 -10.34780 -10.34668 -10.34224
 Alpha  occ. eigenvalues --  -10.33997 -10.33265  -1.17080  -1.15675  -1.13888
 Alpha  occ. eigenvalues --   -1.13280  -1.12441  -1.11681  -0.89519  -0.86116
 Alpha  occ. eigenvalues --   -0.80876  -0.75806  -0.72160  -0.69975  -0.65567
 Alpha  occ. eigenvalues --   -0.63232  -0.61563  -0.60651  -0.59614  -0.57578
 Alpha  occ. eigenvalues --   -0.56196  -0.55442  -0.53946  -0.53394  -0.51929
 Alpha  occ. eigenvalues --   -0.50674  -0.49412  -0.48420  -0.46688  -0.44355
 Alpha  occ. eigenvalues --   -0.43264  -0.42988  -0.41931  -0.40546  -0.39154
 Alpha  occ. eigenvalues --   -0.38661  -0.37232  -0.35909  -0.34708
 Alpha virt. eigenvalues --    0.08465   0.11031   0.11734   0.13519   0.14361
 Alpha virt. eigenvalues --    0.14749   0.15438   0.16731   0.17329   0.18173
 Alpha virt. eigenvalues --    0.18609   0.19819   0.20427   0.22155   0.22376

 Mulliken charges:
               1
     1  C    0.075148
     2  C    0.097493
     3  C    0.132804
     4  C    0.197389
     5  H    0.097208
     6  H    0.069002
     7  C    0.020831
     8  H    0.095060
     9  C   -0.058153
    10  H    0.061931
    11  H    0.064955
    12  H    0.073871
    13  H    0.103502
    14  H    0.105441
    15  O   -0.345417
    16  H    0.182765
    17  O   -0.414847
    18  H    0.208778
    19  O   -0.378754
    20  H    0.188888
    21  O   -0.435655
    22  H    0.207493
    23  O   -0.353667
    24  H    0.181810
    25  O   -0.345325
    26  H    0.167449
 Sum of Mulliken charges =  -0.00000

 Dipole moment (field-independent basis, Debye):
    X=             -2.6058    Y=             -1.8257    Z=             -0.1632  Tot=              3.1859
 Quadrupole moment (field-independent basis, Debye-Ang):
   XX=            -78.9948   YY=            -75.0132   ZZ=            -69.2186
   XY=              6.4900   XZ=              0.5488   YZ=             -2.5167

  Exact polarizability:     108.924       1.342      89.592       1.295      -1.906      86.535
 Approx polarizability:     102.549       0.393     101.975       0.599      -3.216     104.920

                      1                      2                      3
                      A                      A                      A
 Frequencies --     45.4930                70.5060               100.5785
 Red. masses --      5.3079                 4.3985                 3.6090
 Frc consts  --      0.0065                 0.0129                 0.0215
 IR Inten    --      3.1277                 7.1363                18.1860

                      4                      5                      6
                      A                      A                      A
 Frequencies --    118.0183               149.2596               175.5845
 Red. masses --      4.0939                 4.7905                 4.1601
 Frc consts  --      0.0336                 0.0629                 0.0756
 IR Inten    --      5.4182                 4.5875                 0.2720

                      7                      8                      9
                      A                      A                      A
 Frequencies --    209.8134               228.7562               249.3434
 Red. masses --      2.5045                 1.4396                 4.7393
 Frc consts  --      0.0650                 0.0444                 0.1736
 IR Inten    --     47.4225                59.4801                21.0849

                     10                     11                     12
                      A                      A                      A
 Frequencies --    274.5242               297.1321               298.3280
 Red. masses --      4.6249                 5.7684                 2.2118
 Frc consts  --      0.2054                 0.3001                 0.1160
 IR Inten    --      1.0373                 2.7666                48.6340

                     13                     14                     15
                      A                      A                      A
 Frequencies --    310.1477               376.4220               379.4492
 Red. masses --      3.6284                 2.1525                 3.1806
 Frc consts  --      0.2056                 0.1797                 0.2698
 IR Inten    --     15.5128                59.4726                 0.8067

                     16                     17                     18
                      A                      A                      A
 Frequencies --    404.0664               411.8446               444.7711
 Red. masses --      1.2613                 2.1859                 1.3840
 Frc consts  --      0.1213                 0.2184                 0.1613
 IR Inten    --     17.5597                24.6066               131.9453

                     19                     20                     21
                      A                      A                      A
 Frequencies --    482.0056               531.2379               604.6209
 Red. masses --      3.2337                 2.9047                 1.2178
 Frc consts  --      0.4426                 0.4830                 0.2623
 IR Inten    --     20.3563                 5.5842               199.2359

                     22                     23                     24
                      A                      A                      A
 Frequencies --    663.0684               736.7848               796.2269
 Red. masses --      2.5919                 1.2367                 3.0284
 Frc consts  --      0.6714                 0.3955                 1.1312
 IR Inten    --     81.0356                60.6963                 4.3965

                     25                     26                     27
                      A                      A                      A
 Frequencies --    804.6087               830.9786               880.0418
 Red. masses --      3.3436                 4.0246                 2.7183
 Frc consts  --      1.2754                 1.6374                 1.2404
 IR Inten    --     15.4210                16.4757                51.5310

                     28                     29                     30
                      A                      A                      A
 Frequencies --    902.5446               971.3522               996.0508
 Red. masses --      2.6711                 2.5482                 2.0458
 Frc consts  --      1.2820                 1.4166                 1.1958
 IR Inten    --      8.2077                10.7104                14.2786

                     31                     32                     33
                      A                      A                      A
 Frequencies --   1025.0565              1081.2646              1097.5935
 Red. masses --      2.2154                 4.2969                 3.9280
 Frc consts  --      1.3715                 2.9599                 2.7881
 IR Inten    --      8.0450                94.0460                86.2062

                     34                     35                     36
                      A                      A                      A
 Frequencies --   1110.5714              1132.4782              1137.2264
 Red. masses --      1.9683                 3.7152                 2.3886
 Frc consts  --      1.4304                 2.8073                 1.8201
 IR Inten    --     47.8373               106.9617                92.9328

                     37                     38                     39
                      A                      A                      A
 Frequencies --   1151.9279              1166.2678              1215.1131
 Red. masses --      3.1274                 2.7122                 1.0790
 Frc consts  --      2.4450                 2.1735                 0.9386
 IR Inten    --     25.9308                65.4635                40.1126

                     40                     41                     42
                      A                      A                      A
 Frequencies --   1227.7502              1258.3740              1263.6133
 Red. masses --      1.1622                 1.2220                 1.1577
 Frc consts  --      1.0321                 1.1401                 1.0891
 IR Inten    --     35.7827                33.7628                15.0069

                     43                     44                     45
                      A                      A                      A
 Frequencies --   1302.0381              1317.4615              1331.3907
 Red. masses --      1.2892                 1.3054                 1.4249
 Frc consts  --      1.2877                 1.3350                 1.4881
 IR Inten    --     11.7246                 7.9601                 5.9808

                     46                     47                     48
                      A                      A                      A
 Frequencies --   1347.9468              1371.5179              1389.2775
 Red. masses --      1.4631                 1.3535                 1.5771
 Frc consts  --      1.5663                 1.5001                 1.7934
 IR Inten    --     11.5663                13.3007                 3.2579

                     49                     50                     51
                      A                      A                      A
 Frequencies --   1396.8577              1406.4740              1429.1230
 Red. masses --      1.2638                 1.3161                 1.2198
 Frc consts  --      1.4529                 1.5339                 1.4679
 IR Inten    --     34.8955                18.1572                58.0239

                     52                     53                     54
                      A                      A                      A
 Frequencies --   1441.1749              1446.9665              1466.9707
 Red. masses --      1.2711                 1.4046                 1.4843
 Frc consts  --      1.5555                 1.7327                 1.8820
 IR Inten    --     15.6482                40.3202                 8.0902

                     55                     56                     57
                      A                      A                      A
 Frequencies --   1471.1360              1480.0177              1502.6071
 Red. masses --      1.2079                 1.2113                 1.0879
 Frc consts  --      1.5402                 1.5633                 1.4472
 IR Inten    --     29.6304                84.9926                22.2542

                     58                     59                     60
                      A                      A                      A
 Frequencies --   1512.4800              3010.6988              3051.1522
 Red. masses --      1.0924                 1.0678                 1.0631
 Frc consts  --      1.4724                 5.7028                 5.8310
 IR Inten    --      3.6443                42.4046                43.3133

                     61                     62                     63
                      A                      A                      A
 Frequencies --   3056.7730              3076.5710              3084.8115
 Red. masses --      1.0849                 1.0848                 1.0858
 Frc consts  --      5.9726                 6.0497                 6.0879
 IR Inten    --     10.3637                17.2873                17.0679

                     64                     65                     66
                      A                      A                      A
 Frequencies --   3088.3078              3100.1349              3122.9583
 Red. masses --      1.0856                 1.0962                 1.1026
 Frc consts  --      6.1004                 6.2074                 6.3357
 IR Inten    --     37.6127                37.1807                12.1852

                     67                     68                     69
                      A                      A                      A
 Frequencies --   3733.8994              3763.2594              3836.5211
 Red. masses --      1.0660                 1.0651                 1.0655
 Frc consts  --      8.7565                 8.8874                 9.2401
 IR Inten    --    314.7276                84.2138                71.7676

                     70                     71                     72
                      A                      A                      A
 Frequencies --   3878.7988              3884.0635              3947.2886
 Red. masses --      1.0656                 1.0657                 1.0668
 Frc consts  --      9.4462                 9.4719                 9.7934
 IR Inten    --     43.6241                41.3792                59.9850

 - Thermochemistry -
 -------------------
 Temperature   298.150 Kelvin.  Pressure   1.00000 Atm.
 Atom     1 has atomic number  6 and mass  12.00000

 Molecular mass:   182.07904 amu.
 Principal axes and moments of inertia in atomic units:
                           1         2         3
     Eigenvalues --  1054.700273482.059563828.76959
           X            0.99995   0.00947   0.00255
           Y           -0.00944   0.99989  -0.01104
           Z           -0.00265   0.01102   0.99994
 This molecule is an asymmetric top.
 Rotational symmetry number  1.
 Warning -- assumption of classical behavior for rotation
           may cause significant error
 Rotational temperatures (Kelvin)      0.08212     0.02487     0.02262
 Rotational constants (GHZ):           1.71114     0.51830     0.47136
 Zero-point vibrational energy     585329.6 (Joules/Mol)
                                  139.89714 (Kcal/Mol)
 Warning -- explicit consideration of  21 degrees of freedom as
           vibrations may cause significant error
 Vibrational temperatures:     65.45   101.44   144.71   169.80   214.75
          (Kelvin)            252.63   301.87   329.13   358.75   394.98
                              427.51   429.23   446.23   541.59   545.94
                              581.36   592.55   639.93   693.50   764.33
                              869.91   954.01  1060.07  1145.59  1157.65
                             1195.59  1266.18  1298.56  1397.56  1433.09
                             1474.83  1555.70  1579.19  1597.86  1629.38
                             1636.22  1657.37  1678.00  1748.28  1766.46
                             1810.52  1818.06  1873.34  1895.53  1915.57
                             1939.39  1973.31  1998.86  2009.77  2023.60
                             2056.19  2073.53  2081.86  2110.64  2116.64
                             2129.42  2161.92  2176.12  4331.72  4389.93
                             4398.01  4426.50  4438.36  4443.39  4460.40
                             4493.24  5372.25  5414.49  5519.90  5580.73
                             5588.30  5679.27

 Zero-point correction=                           0.222940 (Hartree/Particle)
 Thermal correction to Energy=                    0.236487
 Thermal correction to Enthalpy=                  0.237431
 Thermal correction to Gibbs Free Energy=         0.183327
 Sum of electronic and zero-point Energies=           -688.258135
 Sum of electronic and thermal Energies=              -688.244588
 Sum of electronic and thermal Enthalpies=            -688.243644
 Sum of electronic and thermal Free Energies=         -688.297748

                     E (Thermal)             CV                S
                      KCal/Mol        Cal/Mol-Kelvin    Cal/Mol-Kelvin
 Total                  148.398             50.414            113.871
 Electronic               0.000              0.000              0.000
 Translational            0.889              2.981             41.504
 Rotational               0.889              2.981             31.020
 Vibrational            146.620             44.452             41.346
 Vibration     1          0.595              1.979              5.004
 Vibration     2          0.598              1.968              4.139
 Vibration     3          0.604              1.949              3.443
 Vibration     4          0.608              1.934              3.133
 Vibration     5          0.618              1.903              2.682
 Vibration     6          0.628              1.872              2.375
 Vibration     7          0.642              1.826              2.045
 Vibration     8          0.651              1.797              1.889
 Vibration     9          0.662              1.764              1.735
 Vibration    10          0.677              1.720              1.568
 Vibration    11          0.691              1.679              1.433
 Vibration    12          0.691              1.677              1.426
 Vibration    13          0.699              1.654              1.362
 Vibration    14          0.747              1.520              1.054
 Vibration    15          0.749              1.514              1.041
 Vibration    16          0.769              1.461              0.948
 Vibration    17          0.776              1.445              0.920
 Vibration    18          0.804              1.372              0.812
 Vibration    19          0.838              1.290              0.705
 Vibration    20          0.886              1.181              0.584
 Vibration    21          0.963              1.022              0.442

 Optimization completed.
    -- Stationary point found.
 Normal termination of Gaussian 16 at Wed Sep 27 12:45:43 2023.
