 Gaussian 16, Revision C.01,
 Gaussian 16:  ES64L-G16RevC.01  3-Jul-2019

 ---------------------------------------------
 # opt freq wb97xd/Def2TZVPP geom=connectivity
 ---------------------------------------------

 -------------------
 Title Card Required
 -------------------
 Symbolic Z-matrix:
 Charge =  0 Multiplicity = 1

 SCF Done:  E(RwB97XD) =  -688.469240427     A.U. after   14 cycles
 SCF Done:  E(RwB97XD) =  -688.477332485     A.U. after   11 cycles
 SCF Done:  E(RwB97XD) =  -688.477715013     A.U. after   12 cycles
 SCF Done:  E(RwB97XD) =  -688.478371136     A.U. after   12 cycles
 SCF Done:  E(RwB97XD) =  -688.477472063     A.U. after   12 cycles
 SCF Done:  E(RwB97XD) =  -688.479357174     A.U. after   11 cycles
 SCF Done:  E(RwB97XD) =  -688.479656884     A.U. after   11 cycles
 SCF Done:  E(RwB97XD) =  -688.479705859     A.U. after   11 cycles
 SCF Done:  E(RwB97XD) =  -688.479732904     A.U. after   10 cycles
 SCF Done:  E(RwB97XD) =  -688.479735543     A.U. after    9 cycles
 SCF Done:  E(RwB97XD) =  -688.479736967     A.U. after    8 cycles
 SCF Done:  E(RwB97XD) =  -688.479737086     A.U. after    7 cycles
 SCF Done:  E(RwB97XD) =  -688.479737118     A.U. after    6 cycles
 Optimization completed.
    -- Stationary point found.
 Normal termination of Gaussian 16 at Wed Oct 11 14:48:32 2023.

 ----------------------------------------------------------------------
 #N Geom=AllCheck Guess=TCheck SCRF=Check GenChk RwB97XD/def2TZVPP Freq
 ----------------------------------------------------------------------

 Structure from the checkpoint file:  "MannitolConformerOpt_46.chk"
 -------------------
 Title Card Required
 -------------------
 Charge =  0 Multiplicity = 1

                         Standard orientation:
 ---------------------------------------------------------------------
 Center     Atomic      Atomic             Coordinates (Angstroms)
 Number     Number       Type             X           Y           Z
 ---------------------------------------------------------------------
      1          6           0       -0.487789    0.732295   -0.322267
      2          6           0        0.346739   -0.440668    0.216188
      3          6           0       -1.983972    0.520827   -0.077995
      4          6           0        1.733609   -0.579070   -0.402021
      5          1           0       -0.177598   -1.377787    0.004412
      6          1           0       -0.336725    0.811269   -1.403460
      7          6           0       -2.626381   -0.447827   -1.060439
      8          1           0       -2.460778    1.503003   -0.189121
      9          6           0        2.633702    0.647645   -0.297196
     10          1           0        1.613222   -0.824027   -1.459988
     11          1           0       -2.121878   -1.414275   -1.033324
     12          1           0       -2.555242   -0.054163   -2.078629
     13          1           0        2.726851    0.943995    0.754933
     14          1           0        2.205583    1.487602   -0.841218
     15          8           0       -3.970435   -0.706257   -0.693447
     16          1           0       -4.510811    0.045187   -0.936984
     17          8           0       -2.180656    0.052920    1.247945
     18          1           0       -3.066412   -0.316400    1.286988
     19          8           0       -0.061785    1.951189    0.236199
     20          1           0        0.212855    1.762210    1.137987
     21          8           0        0.517904   -0.306724    1.619420
     22          1           0       -0.356991   -0.405047    2.009138
     23          8           0        2.391547   -1.694143    0.178732
     24          1           0        2.253072   -1.630518    1.127516
     25          8           0        3.893421    0.372789   -0.861801
     26          1           0        4.159439   -0.488454   -0.532246
 ---------------------------------------------------------------------

 SCF Done:  E(RwB97XD) =  -688.479737118     A.U. after    1 cycles

 The electronic state is 1-A.
 Alpha  occ. eigenvalues --  -19.28282 -19.27457 -19.26827 -19.25525 -19.25416
 Alpha  occ. eigenvalues --  -19.23373 -10.35443 -10.35237 -10.35210 -10.35014
 Alpha  occ. eigenvalues --  -10.33783 -10.31677  -1.17590  -1.16285  -1.14431
 Alpha  occ. eigenvalues --   -1.13546  -1.12586  -1.10697  -0.90069  -0.86167
 Alpha  occ. eigenvalues --   -0.80324  -0.76414  -0.71706  -0.69946  -0.66182
 Alpha  occ. eigenvalues --   -0.63904  -0.61701  -0.60576  -0.59270  -0.58141
 Alpha  occ. eigenvalues --   -0.57075  -0.56010  -0.54370  -0.52455  -0.52394
 Alpha  occ. eigenvalues --   -0.50891  -0.49122  -0.47611  -0.45625  -0.44802
 Alpha  occ. eigenvalues --   -0.44433  -0.42253  -0.41855  -0.41651  -0.39321
 Alpha  occ. eigenvalues --   -0.38118  -0.37784  -0.36053  -0.34308
 Alpha virt. eigenvalues --    0.07985   0.10582   0.10966   0.12973   0.13376
 Alpha virt. eigenvalues --    0.14361   0.15736   0.16736   0.17312   0.18145
 Alpha virt. eigenvalues --    0.18832   0.20002   0.20490   0.21467   0.22188

 Mulliken charges:
               1
     1  C    0.139479
     2  C    0.023083
     3  C    0.098712
     4  C    0.193874
     5  H    0.098288
     6  H    0.065390
     7  C    0.014833
     8  H    0.077748
     9  C    0.033889
    10  H    0.061422
    11  H    0.084354
    12  H    0.076953
    13  H    0.065889
    14  H    0.068994
    15  O   -0.345074
    16  H    0.177478
    17  O   -0.382231
    18  H    0.184679
    19  O   -0.361057
    20  H    0.189218
    21  O   -0.409994
    22  H    0.208238
    23  O   -0.385698
    24  H    0.193141
    25  O   -0.354166
    26  H    0.182556
 Sum of Mulliken charges =  -0.00000

 Dipole moment (field-independent basis, Debye):
    X=             -4.6007    Y=             -0.3662    Z=              0.0348  Tot=              4.6154
 Quadrupole moment (field-independent basis, Debye-Ang):
   XX=            -74.5722   YY=            -79.2352   ZZ=            -68.8743
   XY=             -6.4075   XZ=              7.7003   YZ=             -1.4050

  Exact polarizability:     111.620      -0.691      87.156       0.549      -0.879      87.561
 Approx polarizability:     104.750      -1.272     100.938       0.044      -1.903     104.030

                      1                      2                      3
                      A                      A                      A
 Frequencies --     52.9484                75.7332                88.0337
 Red. masses --      6.1413                 5.1667                 3.5282
 Frc consts  --      0.0101                 0.0175                 0.0161
 IR Inten    --      2.2266                 0.7853                 3.9917

                      4                      5                      6
                      A                      A                      A
 Frequencies --    107.5535               146.4040               178.5489
 Red. masses --      4.1028                 3.2526                 4.5972
 Frc consts  --      0.0280                 0.0411                 0.0863
 IR Inten    --     13.6126                 2.3600                 0.9877

                      7                      8                      9
                      A                      A                      A
 Frequencies --    207.5435               212.1359               256.1995
 Red. masses --      4.8942                 5.2450                 4.9310
 Frc consts  --      0.1242                 0.1391                 0.1907
 IR Inten    --      7.9082                 1.5327                 6.2457

                     10                     11                     12
                      A                      A                      A
 Frequencies --    296.8188               301.5291               313.2201
 Red. masses --      3.0138                 2.7833                 1.5048
 Frc consts  --      0.1564                 0.1491                 0.0870
 IR Inten    --      7.5667                25.9994                57.4915

                     13                     14                     15
                      A                      A                      A
 Frequencies --    327.4129               355.6411               405.5805
 Red. masses --      4.2896                 3.4279                 3.8954
 Frc consts  --      0.2709                 0.2554                 0.3775
 IR Inten    --      0.3028                20.2325                 1.8090

                     16                     17                     18
                      A                      A                      A
 Frequencies --    419.3611               429.5813               490.3627
 Red. masses --      1.2481                 1.3075                 1.1553
 Frc consts  --      0.1293                 0.1422                 0.1637
 IR Inten    --     18.7123                75.7151               119.3619

                     19                     20                     21
                      A                      A                      A
 Frequencies --    497.9381               529.0409               542.9655
 Red. masses --      1.4619                 1.7040                 2.6312
 Frc consts  --      0.2136                 0.2810                 0.4570
 IR Inten    --     45.1694               145.0303                29.0324

                     22                     23                     24
                      A                      A                      A
 Frequencies --    614.3753               637.4986               745.0243
 Red. masses --      3.3767                 1.1006                 4.3663
 Frc consts  --      0.7509                 0.2635                 1.4279
 IR Inten    --     36.8950               158.0637                27.2634

                     25                     26                     27
                      A                      A                      A
 Frequencies --    780.4065               854.7292               890.5321
 Red. masses --      3.6656                 3.2751                 2.8107
 Frc consts  --      1.3153                 1.4097                 1.3133
 IR Inten    --      4.8144                20.4472                18.7475

                     28                     29                     30
                      A                      A                      A
 Frequencies --    917.6386               972.9767              1019.9156
 Red. masses --      2.5233                 2.0729                 1.9198
 Frc consts  --      1.2519                 1.1562                 1.1766
 IR Inten    --     31.6760                19.7964                16.0177

                     31                     32                     33
                      A                      A                      A
 Frequencies --   1036.2724              1091.3561              1102.4442
 Red. masses --      2.5976                 3.3505                 2.4879
 Frc consts  --      1.6435                 2.3512                 1.7815
 IR Inten    --    116.9842                38.8603                44.2298

                     34                     35                     36
                      A                      A                      A
 Frequencies --   1110.0720              1122.5725              1131.5813
 Red. masses --      2.4048                 4.0704                 3.3515
 Frc consts  --      1.7460                 3.0221                 2.5285
 IR Inten    --     51.0813                73.4014                96.2509

                     37                     38                     39
                      A                      A                      A
 Frequencies --   1151.8192              1169.3513              1203.6684
 Red. masses --      3.0956                 2.9324                 1.2452
 Frc consts  --      2.4197                 2.3625                 1.0630
 IR Inten    --     21.8259                61.0413                73.9912

                     40                     41                     42
                      A                      A                      A
 Frequencies --   1227.9642              1254.4766              1266.0583
 Red. masses --      1.2592                 1.1869                 1.2635
 Frc consts  --      1.1187                 1.1005                 1.1932
 IR Inten    --     86.2843                24.1839                22.6499

                     43                     44                     45
                      A                      A                      A
 Frequencies --   1278.7183              1310.3257              1332.5776
 Red. masses --      1.2621                 1.3495                 1.2409
 Frc consts  --      1.2159                 1.3652                 1.2983
 IR Inten    --     27.5371                65.1676                 7.8194

                     46                     47                     48
                      A                      A                      A
 Frequencies --   1355.8919              1364.8340              1396.3194
 Red. masses --      1.2434                 1.3358                 1.3069
 Frc consts  --      1.3468                 1.4661                 1.5013
 IR Inten    --     32.4593                12.7586                 4.8446

                     49                     50                     51
                      A                      A                      A
 Frequencies --   1401.4230              1404.9138              1416.2812
 Red. masses --      1.2410                 1.3217                 1.2663
 Frc consts  --      1.4360                 1.5371                 1.4965
 IR Inten    --     19.5152                 5.7281                12.1812

                     52                     53                     54
                      A                      A                      A
 Frequencies --   1426.0379              1440.6587              1455.3993
 Red. masses --      1.2714                 1.2914                 1.4266
 Frc consts  --      1.5233                 1.5792                 1.7804
 IR Inten    --     71.3834                25.5884                30.8842

                     55                     56                     57
                      A                      A                      A
 Frequencies --   1462.1323              1465.2085              1504.5216
 Red. masses --      1.5932                 1.4517                 1.0856
 Frc consts  --      2.0067                 1.8363                 1.4478
 IR Inten    --     36.6193                20.5002                 3.8286

                     58                     59                     60
                      A                      A                      A
 Frequencies --   1519.9283              3014.6449              3015.2123
 Red. masses --      1.0844                 1.0829                 1.0723
 Frc consts  --      1.4760                 5.7985                 5.7440
 IR Inten    --      2.3371                28.4986                43.0164

                     61                     62                     63
                      A                      A                      A
 Frequencies --   3046.7590              3048.1665              3057.3006
 Red. masses --      1.0718                 1.0796                 1.0805
 Frc consts  --      5.8619                 5.9103                 5.9504
 IR Inten    --     23.3725                 9.3063                34.2155

                     64                     65                     66
                      A                      A                      A
 Frequencies --   3079.7470              3118.8545              3138.6849
 Red. masses --      1.0857                 1.1021                 1.0931
 Frc consts  --      6.0674                 6.3164                 6.3448
 IR Inten    --     39.6081                23.9520                17.4318

                     67                     68                     69
                      A                      A                      A
 Frequencies --   3817.7618              3840.5885              3852.1820
 Red. masses --      1.0655                 1.0651                 1.0654
 Frc consts  --      9.1499                 9.2559                 9.3146
 IR Inten    --    164.6274                60.6505                57.9247

                     70                     71                     72
                      A                      A                      A
 Frequencies --   3854.7697              3866.7002              3909.4636
 Red. masses --      1.0656                 1.0653                 1.0664
 Frc consts  --      9.3288                 9.3841                 9.6034
 IR Inten    --     69.9912                40.7058                44.6197

 - Thermochemistry -
 -------------------
 Temperature   298.150 Kelvin.  Pressure   1.00000 Atm.
 Atom     1 has atomic number  6 and mass  12.00000

 Molecular mass:   182.07904 amu.
 Principal axes and moments of inertia in atomic units:
                           1         2         3
     Eigenvalues --  1019.734664041.518404157.66296
           X            0.99997  -0.00056   0.00727
           Y            0.00057   1.00000  -0.00096
           Z           -0.00727   0.00097   0.99997
 This molecule is an asymmetric top.
 Rotational symmetry number  1.
 Warning -- assumption of classical behavior for rotation
           may cause significant error
 Rotational temperatures (Kelvin)      0.08494     0.02143     0.02083
 Rotational constants (GHZ):           1.76981     0.44655     0.43408
 Zero-point vibrational energy     584562.9 (Joules/Mol)
                                  139.71390 (Kcal/Mol)
 Warning -- explicit consideration of  22 degrees of freedom as
           vibrations may cause significant error
 Vibrational temperatures:     76.18   108.96   126.66   154.75   210.64
          (Kelvin)            256.89   298.61   305.22   368.61   427.06
                              433.83   450.65   471.07   511.69   583.54
                              603.37   618.07   705.52   716.42   761.17
                              781.21   883.95   917.22  1071.92  1122.83
                             1229.76  1281.28  1320.28  1399.90  1467.43
                             1490.96  1570.22  1586.17  1597.15  1615.13
                             1628.09  1657.21  1682.44  1731.81  1766.77
                             1804.91  1821.58  1839.79  1885.27  1917.28
                             1950.83  1963.69  2008.99  2016.34  2021.36
                             2037.71  2051.75  2072.79  2093.99  2103.68
                             2108.11  2164.67  2186.84  4337.40  4338.22
                             4383.61  4385.63  4398.77  4431.07  4487.34
                             4515.87  5492.91  5525.75  5542.43  5546.15
                             5563.32  5624.85

 Zero-point correction=                           0.222648 (Hartree/Particle)
 Thermal correction to Energy=                    0.236189
 Thermal correction to Enthalpy=                  0.237133
 Thermal correction to Gibbs Free Energy=         0.183012
 Sum of electronic and zero-point Energies=           -688.257089
 Sum of electronic and thermal Energies=              -688.243549
 Sum of electronic and thermal Enthalpies=            -688.242604
 Sum of electronic and thermal Free Energies=         -688.296725

                     E (Thermal)             CV                S
                      KCal/Mol        Cal/Mol-Kelvin    Cal/Mol-Kelvin
 Total                  148.211             50.595            113.907
 Electronic               0.000              0.000              0.000
 Translational            0.889              2.981             41.504
 Rotational               0.889              2.981             31.217
 Vibrational            146.433             44.633             41.186
 Vibration     1          0.596              1.976              4.704
 Vibration     2          0.599              1.965              3.999
 Vibration     3          0.601              1.958              3.703
 Vibration     4          0.606              1.943              3.313
 Vibration     5          0.617              1.907              2.718
 Vibration     6          0.629              1.869              2.344
 Vibration     7          0.641              1.829              2.065
 Vibration     8          0.643              1.822              2.025
 Vibration     9          0.666              1.752              1.688
 Vibration    10          0.690              1.680              1.435
 Vibration    11          0.694              1.671              1.408
 Vibration    12          0.701              1.648              1.345
 Vibration    13          0.711              1.621              1.273
 Vibration    14          0.731              1.564              1.141
 Vibration    15          0.771              1.458              0.942
 Vibration    16          0.782              1.428              0.894
 Vibration    17          0.791              1.406              0.860
 Vibration    18          0.846              1.271              0.683
 Vibration    19          0.853              1.255              0.663
 Vibration    20          0.884              1.186              0.589
 Vibration    21          0.898              1.155              0.559
 Vibration    22          0.974              1.001              0.426

 Optimization completed.
    -- Stationary point found.
 Normal termination of Gaussian 16 at Wed Oct 11 15:27:49 2023.
