 Gaussian 16, Revision C.01,
 Gaussian 16:  ES64L-G16RevC.01  3-Jul-2019

 ---------------------------------------------
 # opt freq wb97xd/Def2TZVPP geom=connectivity
 ---------------------------------------------

 -------------------
 Title Card Required
 -------------------
 Symbolic Z-matrix:
 Charge =  0 Multiplicity = 1

 SCF Done:  E(RwB97XD) =  -688.462579645     A.U. after   14 cycles
 SCF Done:  E(RwB97XD) =  -688.471855804     A.U. after   11 cycles
 SCF Done:  E(RwB97XD) =  -688.472004391     A.U. after   12 cycles
 SCF Done:  E(RwB97XD) =  -688.472525504     A.U. after   12 cycles
 SCF Done:  E(RwB97XD) =  -688.473045523     A.U. after   11 cycles
 SCF Done:  E(RwB97XD) =  -688.473106633     A.U. after   11 cycles
 SCF Done:  E(RwB97XD) =  -688.473245925     A.U. after   11 cycles
 SCF Done:  E(RwB97XD) =  -688.473319057     A.U. after   11 cycles
 SCF Done:  E(RwB97XD) =  -688.473353053     A.U. after   11 cycles
 SCF Done:  E(RwB97XD) =  -688.473383371     A.U. after   10 cycles
 SCF Done:  E(RwB97XD) =  -688.473386536     A.U. after    8 cycles
 SCF Done:  E(RwB97XD) =  -688.473387660     A.U. after    7 cycles
 SCF Done:  E(RwB97XD) =  -688.473388199     A.U. after    8 cycles
 SCF Done:  E(RwB97XD) =  -688.473388343     A.U. after    7 cycles
 SCF Done:  E(RwB97XD) =  -688.473388412     A.U. after    7 cycles
 SCF Done:  E(RwB97XD) =  -688.473388446     A.U. after    6 cycles
 SCF Done:  E(RwB97XD) =  -688.473388465     A.U. after    6 cycles
 Optimization completed.
    -- Stationary point found.
 Normal termination of Gaussian 16 at Wed Oct 11 14:56:51 2023.

 ----------------------------------------------------------------------
 #N Geom=AllCheck Guess=TCheck SCRF=Check GenChk RwB97XD/def2TZVPP Freq
 ----------------------------------------------------------------------

 Structure from the checkpoint file:  "MannitolConformerOpt_32.chk"
 -------------------
 Title Card Required
 -------------------
 Charge =  0 Multiplicity = 1

                         Standard orientation:
 ---------------------------------------------------------------------
 Center     Atomic      Atomic             Coordinates (Angstroms)
 Number     Number       Type             X           Y           Z
 ---------------------------------------------------------------------
      1          6           0        0.553924    0.763928    0.289830
      2          6           0       -0.752728    0.793016   -0.500380
      3          6           0        1.627331   -0.128957   -0.318194
      4          6           0       -1.507687   -0.531704   -0.669337
      5          1           0       -0.509633    1.138305   -1.514545
      6          1           0        0.348432    0.407669    1.307444
      7          6           0        2.979326    0.104918    0.332959
      8          1           0        1.719429    0.096234   -1.388921
      9          6           0       -1.819947   -1.319379    0.599319
     10          1           0       -0.893277   -1.172451   -1.301091
     11          1           0        2.882844   -0.012490    1.418017
     12          1           0        3.331849    1.112667    0.112989
     13          1           0       -0.953404   -1.342827    1.260004
     14          1           0       -2.054459   -2.347700    0.307756
     15          8           0        3.847997   -0.882634   -0.206078
     16          1           0        4.679648   -0.862704    0.262062
     17          8           0        1.241230   -1.477185   -0.136948
     18          1           0        2.028314   -2.005193   -0.289787
     19          8           0        1.079484    2.074269    0.338216
     20          1           0        0.333371    2.658621    0.491839
     21          8           0       -1.544132    1.773857    0.145224
     22          1           0       -2.389419    1.801431   -0.304673
     23          8           0       -2.715484   -0.259449   -1.362168
     24          1           0       -3.415185   -0.295565   -0.703358
     25          8           0       -2.945433   -0.721467    1.229176
     26          1           0       -3.299107   -1.326054    1.877707
 ---------------------------------------------------------------------

 SCF Done:  E(RwB97XD) =  -688.473388465     A.U. after    1 cycles

 The electronic state is 1-A.
 Alpha  occ. eigenvalues --  -19.26303 -19.26280 -19.25056 -19.24953 -19.24599
 Alpha  occ. eigenvalues --  -19.24372 -10.33584 -10.33433 -10.33247 -10.33166
 Alpha  occ. eigenvalues --  -10.33047 -10.33000  -1.15681  -1.15076  -1.14010
 Alpha  occ. eigenvalues --   -1.12257  -1.11873  -1.10717  -0.88391  -0.85161
 Alpha  occ. eigenvalues --   -0.80326  -0.74983  -0.70660  -0.67209  -0.63335
 Alpha  occ. eigenvalues --   -0.62954  -0.62206  -0.60007  -0.58822  -0.57640
 Alpha  occ. eigenvalues --   -0.56486  -0.55567  -0.53164  -0.51392  -0.49998
 Alpha  occ. eigenvalues --   -0.49427  -0.47706  -0.45698  -0.45386  -0.45141
 Alpha  occ. eigenvalues --   -0.44316  -0.41404  -0.40923  -0.38730  -0.37715
 Alpha  occ. eigenvalues --   -0.37478  -0.36355  -0.35507  -0.34401
 Alpha virt. eigenvalues --    0.09303   0.09968   0.12677   0.12966   0.14137
 Alpha virt. eigenvalues --    0.15283   0.16898   0.17754   0.18374   0.19367
 Alpha virt. eigenvalues --    0.20153   0.20748   0.21544   0.22485   0.22741

 Mulliken charges:
               1
     1  C    0.114268
     2  C    0.071749
     3  C    0.154131
     4  C    0.203492
     5  H    0.085289
     6  H    0.073241
     7  C   -0.027507
     8  H    0.057865
     9  C   -0.047336
    10  H    0.075237
    11  H    0.084324
    12  H    0.098641
    13  H    0.078326
    14  H    0.098261
    15  O   -0.344456
    16  H    0.169648
    17  O   -0.366837
    18  H    0.181603
    19  O   -0.366780
    20  H    0.190430
    21  O   -0.374067
    22  H    0.172237
    23  O   -0.397868
    24  H    0.190736
    25  O   -0.339573
    26  H    0.164944
 Sum of Mulliken charges =  -0.00000

 Dipole moment (field-independent basis, Debye):
    X=              0.6750    Y=             -1.7675    Z=              2.0110  Tot=              2.7611
 Quadrupole moment (field-independent basis, Debye-Ang):
   XX=            -58.6180   YY=            -70.5486   ZZ=            -72.8377
   XY=              0.7996   XZ=             -1.2543   YZ=             -4.9007

  Exact polarizability:     110.684      -0.288      92.921      -0.151      -0.742      83.763
 Approx polarizability:     106.915      -1.903     102.614      -1.139       0.026      98.865

                      1                      2                      3
                      A                      A                      A
 Frequencies --     31.2979                71.4178                79.4434
 Red. masses --      4.8002                 4.9799                 4.6231
 Frc consts  --      0.0028                 0.0150                 0.0172
 IR Inten    --      0.5861                 2.5239                 4.8492

                      4                      5                      6
                      A                      A                      A
 Frequencies --    120.7265               129.1190               151.2326
 Red. masses --      5.4844                 4.0998                 3.9548
 Frc consts  --      0.0471                 0.0403                 0.0533
 IR Inten    --      3.1913                 3.4420                 1.3545

                      7                      8                      9
                      A                      A                      A
 Frequencies --    205.5139               223.2599               236.5941
 Red. masses --      3.0158                 1.4361                 1.1493
 Frc consts  --      0.0750                 0.0422                 0.0379
 IR Inten    --     10.4395                63.2953                94.4264

                     10                     11                     12
                      A                      A                      A
 Frequencies --    252.3411               293.0717               311.1685
 Red. masses --      2.1446                 4.7923                 4.6764
 Frc consts  --      0.0805                 0.2425                 0.2668
 IR Inten    --     25.4654                29.8869                 3.5190

                     13                     14                     15
                      A                      A                      A
 Frequencies --    313.8613               326.1829               346.7764
 Red. masses --      1.4841                 3.7593                 4.2853
 Frc consts  --      0.0861                 0.2357                 0.3036
 IR Inten    --    102.2600                15.4998                36.1466

                     16                     17                     18
                      A                      A                      A
 Frequencies --    367.4632               413.1879               459.4152
 Red. masses --      4.9086                 2.5342                 1.2127
 Frc consts  --      0.3905                 0.2549                 0.1508
 IR Inten    --     13.5945                 5.7074                38.4354

                     19                     20                     21
                      A                      A                      A
 Frequencies --    479.4111               517.2497               535.6558
 Red. masses --      1.1708                 4.8814                 2.7891
 Frc consts  --      0.1585                 0.7695                 0.4715
 IR Inten    --    175.9087                 4.3916                15.0779

                     22                     23                     24
                      A                      A                      A
 Frequencies --    565.7856               582.0869               620.2953
 Red. masses --      1.1030                 2.9153                 3.2941
 Frc consts  --      0.2080                 0.5820                 0.7468
 IR Inten    --     33.3372                25.9775                49.7339

                     25                     26                     27
                      A                      A                      A
 Frequencies --    781.9291               829.0539               911.3036
 Red. masses --      4.0624                 3.2471                 2.3143
 Frc consts  --      1.4634                 1.3149                 1.1324
 IR Inten    --     25.4021                 6.7040                16.5139

                     28                     29                     30
                      A                      A                      A
 Frequencies --    991.5154              1011.3708              1026.9107
 Red. masses --      3.0721                 2.2047                 3.0105
 Frc consts  --      1.7795                 1.3287                 1.8705
 IR Inten    --     12.1179                25.9434                 6.6089

                     31                     32                     33
                      A                      A                      A
 Frequencies --   1070.4782              1074.8854              1103.1772
 Red. masses --      2.8847                 2.4537                 2.9657
 Frc consts  --      1.9476                 1.6703                 2.1265
 IR Inten    --     82.6794                23.9965                13.2603

                     34                     35                     36
                      A                      A                      A
 Frequencies --   1108.1650              1124.5247              1133.9993
 Red. masses --      3.1555                 3.6414                 2.8179
 Frc consts  --      2.2831                 2.7131                 2.1350
 IR Inten    --    125.8563               182.4832                88.1181

                     37                     38                     39
                      A                      A                      A
 Frequencies --   1156.7475              1173.6978              1208.3994
 Red. masses --      3.0913                 2.5568                 1.1203
 Frc consts  --      2.4371                 2.0752                 0.9639
 IR Inten    --     40.5868                 3.7348                38.1077

                     40                     41                     42
                      A                      A                      A
 Frequencies --   1222.7401              1247.3938              1272.1623
 Red. masses --      1.1976                 1.2027                 1.1715
 Frc consts  --      1.0550                 1.1026                 1.1170
 IR Inten    --     13.4218                53.0240                17.2452

                     43                     44                     45
                      A                      A                      A
 Frequencies --   1276.3143              1286.9553              1317.7661
 Red. masses --      1.1933                 1.1485                 1.1281
 Frc consts  --      1.1453                 1.1207                 1.1542
 IR Inten    --     28.4196                28.4598                 3.1660

                     46                     47                     48
                      A                      A                      A
 Frequencies --   1326.5269              1359.6374              1376.8395
 Red. masses --      1.2743                 1.2690                 1.2598
 Frc consts  --      1.3211                 1.3822                 1.4071
 IR Inten    --     32.7809                58.1946                47.2173

                     49                     50                     51
                      A                      A                      A
 Frequencies --   1387.7181              1396.6865              1402.7539
 Red. masses --      1.2555                 1.3477                 1.2450
 Frc consts  --      1.4245                 1.5489                 1.4434
 IR Inten    --     35.5498                56.8310                 6.0358

                     52                     53                     54
                      A                      A                      A
 Frequencies --   1440.9283              1450.7655              1453.3912
 Red. masses --      1.2798                 1.4929                 1.4943
 Frc consts  --      1.5656                 1.8513                 1.8597
 IR Inten    --     31.7144                 2.6075                 3.4898

                     55                     56                     57
                      A                      A                      A
 Frequencies --   1469.2277              1497.0957              1517.7606
 Red. masses --      1.5390                 1.9527                 1.0894
 Frc consts  --      1.9573                 2.5786                 1.4786
 IR Inten    --     14.2832                 2.0022                 5.2862

                     58                     59                     60
                      A                      A                      A
 Frequencies --   1527.5724              2998.4650              3004.4792
 Red. masses --      1.0924                 1.0820                 1.0812
 Frc consts  --      1.5018                 5.7314                 5.7506
 IR Inten    --     12.7511                11.5516                 1.1112

                     61                     62                     63
                      A                      A                      A
 Frequencies --   3019.7174              3031.8886              3039.3341
 Red. masses --      1.0831                 1.0677                 1.0666
 Frc consts  --      5.8192                 5.7827                 5.8050
 IR Inten    --     56.3185                73.9919                39.6197

                     64                     65                     66
                      A                      A                      A
 Frequencies --   3107.4407              3111.6146              3115.7654
 Red. masses --      1.0862                 1.0988                 1.0996
 Frc consts  --      6.1798                 6.2683                 6.2897
 IR Inten    --     17.0950                22.3099                22.0751

                     67                     68                     69
                      A                      A                      A
 Frequencies --   3833.3937              3867.4480              3868.3937
 Red. masses --      1.0653                 1.0653                 1.0654
 Frc consts  --      9.2234                 9.3880                 9.3933
 IR Inten    --     89.5467               111.8079                52.6415

                     70                     71                     72
                      A                      A                      A
 Frequencies --   3900.5568              3947.5590              3948.9286
 Red. masses --      1.0655                 1.0669                 1.0668
 Frc consts  --      9.5510                 9.7954                 9.8017
 IR Inten    --     52.4277                56.4146                55.4322

 - Thermochemistry -
 -------------------
 Temperature   298.150 Kelvin.  Pressure   1.00000 Atm.
 Atom     1 has atomic number  6 and mass  12.00000

 Molecular mass:   182.07904 amu.
 Principal axes and moments of inertia in atomic units:
                           1         2         3
     Eigenvalues --  1188.278493441.090423992.88707
           X            0.99998   0.00689   0.00037
           Y           -0.00688   0.99975  -0.02110
           Z           -0.00051   0.02110   0.99978
 This molecule is an asymmetric top.
 Rotational symmetry number  1.
 Warning -- assumption of classical behavior for rotation
           may cause significant error
 Rotational temperatures (Kelvin)      0.07289     0.02517     0.02169
 Rotational constants (GHZ):           1.51879     0.52447     0.45199
 Zero-point vibrational energy     582365.7 (Joules/Mol)
                                  139.18873 (Kcal/Mol)
 Warning -- explicit consideration of  24 degrees of freedom as
           vibrations may cause significant error
 Vibrational temperatures:     45.03   102.75   114.30   173.70   185.77
          (Kelvin)            217.59   295.69   321.22   340.41   363.06
                              421.66   447.70   451.58   469.30   498.93
                              528.70   594.49   661.00   689.77   744.21
                              770.69   814.04   837.49   892.47  1125.02
                             1192.82  1311.16  1426.57  1455.14  1477.50
                             1540.18  1546.52  1587.23  1594.40  1617.94
                             1631.57  1664.30  1688.69  1738.62  1759.25
                             1794.72  1830.36  1836.33  1851.64  1895.97
                             1908.58  1956.22  1980.96  1996.62  2009.52
                             2018.25  2073.17  2087.33  2091.11  2113.89
                             2153.99  2183.72  2197.84  4314.12  4322.78
                             4344.70  4362.21  4372.92  4470.91  4476.92
                             4482.89  5515.40  5564.40  5565.76  5612.03
                             5679.66  5681.63

 Zero-point correction=                           0.221811 (Hartree/Particle)
 Thermal correction to Energy=                    0.235883
 Thermal correction to Enthalpy=                  0.236828
 Thermal correction to Gibbs Free Energy=         0.181182
 Sum of electronic and zero-point Energies=           -688.251577
 Sum of electronic and thermal Energies=              -688.237505
 Sum of electronic and thermal Enthalpies=            -688.236561
 Sum of electronic and thermal Free Energies=         -688.292206

                     E (Thermal)             CV                S
                      KCal/Mol        Cal/Mol-Kelvin    Cal/Mol-Kelvin
 Total                  148.019             51.611            117.116
 Electronic               0.000              0.000              0.000
 Translational            0.889              2.981             41.504
 Rotational               0.889              2.981             31.169
 Vibrational            146.242             45.650             44.443
 Vibration     1          0.594              1.983              5.745
 Vibration     2          0.598              1.968              4.114
 Vibration     3          0.600              1.963              3.905
 Vibration     4          0.609              1.932              3.089
 Vibration     5          0.612              1.924              2.959
 Vibration     6          0.619              1.901              2.657
 Vibration     7          0.640              1.832              2.083
 Vibration     8          0.649              1.806              1.932
 Vibration     9          0.655              1.785              1.828
 Vibration    10          0.664              1.759              1.714
 Vibration    11          0.688              1.687              1.456
 Vibration    12          0.700              1.652              1.356
 Vibration    13          0.702              1.647              1.342
 Vibration    14          0.710              1.623              1.279
 Vibration    15          0.725              1.582              1.181
 Vibration    16          0.740              1.539              1.090
 Vibration    17          0.777              1.442              0.915
 Vibration    18          0.817              1.340              0.768
 Vibration    19          0.836              1.296              0.712
 Vibration    20          0.872              1.212              0.616
 Vibration    21          0.891              1.171              0.575
 Vibration    22          0.922              1.105              0.512
 Vibration    23          0.939              1.070              0.482
 Vibration    24          0.980              0.989              0.416

                           ! Non-Optimized Parameters !
 Normal termination of Gaussian 16 at Wed Oct 11 15:36:49 2023.
