 Gaussian 16, Revision C.01,
 Gaussian 16:  ES64L-G16RevC.01  3-Jul-2019

 ---------------------------------------------
 # opt freq wb97xd/def2tzvpp geom=connectivity
 ---------------------------------------------

 --------------------------------
 Mannitol Conformer Optimziations
 --------------------------------
 Symbolic Z-matrix:
 Charge =  0 Multiplicity = 1

 SCF Done:  E(RwB97XD) =  -688.475371375     A.U. after   13 cycles
 SCF Done:  E(RwB97XD) =  -688.480311916     A.U. after   12 cycles
 SCF Done:  E(RwB97XD) =  -688.482104290     A.U. after   12 cycles
 SCF Done:  E(RwB97XD) =  -688.482734215     A.U. after   12 cycles
 SCF Done:  E(RwB97XD) =  -688.483167657     A.U. after   12 cycles
 SCF Done:  E(RwB97XD) =  -688.483771775     A.U. after   11 cycles
 SCF Done:  E(RwB97XD) =  -688.483796055     A.U. after   10 cycles
 SCF Done:  E(RwB97XD) =  -688.483658110     A.U. after   10 cycles
 SCF Done:  E(RwB97XD) =  -688.483817577     A.U. after   10 cycles
 SCF Done:  E(RwB97XD) =  -688.483820673     A.U. after    8 cycles
 SCF Done:  E(RwB97XD) =  -688.483821361     A.U. after    8 cycles
 SCF Done:  E(RwB97XD) =  -688.483821742     A.U. after    7 cycles
 SCF Done:  E(RwB97XD) =  -688.483821831     A.U. after    6 cycles
 Optimization completed.
    -- Stationary point found.
 Normal termination of Gaussian 16 at Wed Sep 27 11:46:11 2023.

 ----------------------------------------------------------------------
 #N Geom=AllCheck Guess=TCheck SCRF=Check GenChk RwB97XD/def2TZVPP Freq
 ----------------------------------------------------------------------

 Structure from the checkpoint file:  "MannitolConformerOpt_24.chk"
 --------------------------------
 Mannitol Conformer Optimziations
 --------------------------------
 Charge =  0 Multiplicity = 1

                         Standard orientation:
 ---------------------------------------------------------------------
 Center     Atomic      Atomic             Coordinates (Angstroms)
 Number     Number       Type             X           Y           Z
 ---------------------------------------------------------------------
      1          6           0        0.427297   -0.208975   -0.785068
      2          6           0       -0.183701    0.280135    0.533486
      3          6           0        1.959243   -0.246986   -0.807996
      4          6           0       -1.713261    0.218613    0.564263
      5          1           0        0.133435    1.310874    0.690953
      6          1           0        0.099682    0.463974   -1.581108
      7          6           0        2.652907    1.095139   -0.591780
      8          1           0        2.242136   -0.587215   -1.808539
      9          6           0       -2.402294    0.900527   -0.606586
     10          1           0       -2.044322    0.710044    1.481262
     11          1           0        2.224484    1.841428   -1.263772
     12          1           0        3.707166    0.972639   -0.860165
     13          1           0       -2.156958    0.375208   -1.538627
     14          1           0       -2.054763    1.931319   -0.698561
     15          8           0        2.527898    1.609327    0.713060
     16          1           0        2.936248    0.992341    1.321007
     17          8           0        2.439680   -1.232228    0.090242
     18          1           0        1.932572   -1.128279    0.907615
     19          8           0       -0.064020   -1.505878   -1.117955
     20          1           0        0.581328   -2.139041   -0.791083
     21          8           0        0.315082   -0.477174    1.633430
     22          1           0       -0.343810   -1.154528    1.817464
     23          8           0       -2.157632   -1.127975    0.684012
     24          1           0       -1.758265   -1.608588   -0.052237
     25          8           0       -3.794001    0.949073   -0.415269
     26          1           0       -4.076137    0.067943   -0.162278
 ---------------------------------------------------------------------

 SCF Done:  E(RwB97XD) =  -688.483821831     A.U. after    1 cycles

 The electronic state is 1-A.
 Alpha  occ. eigenvalues --  -19.27573 -19.27330 -19.26513 -19.26115 -19.26078
 Alpha  occ. eigenvalues --  -19.24999 -10.35532 -10.35048 -10.34982 -10.34656
 Alpha  occ. eigenvalues --  -10.34128 -10.33659  -1.17907  -1.15533  -1.14412
 Alpha  occ. eigenvalues --   -1.13902  -1.12690  -1.12055  -0.90086  -0.86327
 Alpha  occ. eigenvalues --   -0.81053  -0.76100  -0.73190  -0.70415  -0.65686
 Alpha  occ. eigenvalues --   -0.62109  -0.62018  -0.61156  -0.60423  -0.57984
 Alpha  occ. eigenvalues --   -0.57348  -0.56328  -0.54695  -0.52703  -0.51836
 Alpha  occ. eigenvalues --   -0.50675  -0.49874  -0.48447  -0.47128  -0.45203
 Alpha  occ. eigenvalues --   -0.44216  -0.43437  -0.42005  -0.41139  -0.40147
 Alpha  occ. eigenvalues --   -0.39356  -0.36760  -0.36250  -0.35341
 Alpha virt. eigenvalues --    0.08959   0.10568   0.11801   0.12900   0.13729
 Alpha virt. eigenvalues --    0.14460   0.15180   0.16770   0.17907   0.18316
 Alpha virt. eigenvalues --    0.18787   0.19567   0.20465   0.21249   0.21883

 Mulliken charges:
               1
     1  C    0.101785
     2  C    0.073210
     3  C    0.119780
     4  C    0.154173
     5  H    0.097266
     6  H    0.078941
     7  C    0.010648
     8  H    0.086967
     9  C    0.019406
    10  H    0.098496
    11  H    0.064955
    12  H    0.095660
    13  H    0.071916
    14  H    0.066901
    15  O   -0.342322
    16  H    0.175230
    17  O   -0.411162
    18  H    0.207274
    19  O   -0.392872
    20  H    0.191551
    21  O   -0.393479
    22  H    0.193601
    23  O   -0.415172
    24  H    0.208291
    25  O   -0.343674
    26  H    0.182628
 Sum of Mulliken charges =  -0.00000

 Dipole moment (field-independent basis, Debye):
    X=              1.5046    Y=             -0.7980    Z=             -0.8285  Tot=              1.8940
 Quadrupole moment (field-independent basis, Debye-Ang):
   XX=            -81.3911   YY=            -74.6406   ZZ=            -71.5241
   XY=              4.1901   XZ=             -2.1881   YZ=             -2.6733

  Exact polarizability:     107.585       0.131      89.542      -1.844      -1.834      87.251
 Approx polarizability:     103.600      -0.372     104.751      -0.691      -2.250     101.964

                      1                      2                      3
                      A                      A                      A
 Frequencies --     54.8444                93.0774               102.4569
 Red. masses --      6.1489                 3.3493                 3.9588
 Frc consts  --      0.0109                 0.0171                 0.0245
 IR Inten    --      0.1374                 2.1825                 2.5142

                      4                      5                      6
                      A                      A                      A
 Frequencies --    111.9037               132.0125               169.3883
 Red. masses --      5.5711                 4.0790                 5.2417
 Frc consts  --      0.0411                 0.0419                 0.0886
 IR Inten    --      2.6407                15.7686                 4.6657

                      7                      8                      9
                      A                      A                      A
 Frequencies --    197.1477               261.5671               268.9505
 Red. masses --      4.6917                 4.7024                 4.6814
 Frc consts  --      0.1074                 0.1896                 0.1995
 IR Inten    --      5.9374                 8.6146                17.0652

                     10                     11                     12
                      A                      A                      A
 Frequencies --    276.3691               305.9209               317.5585
 Red. masses --      3.1384                 3.1434                 6.9729
 Frc consts  --      0.1412                 0.1733                 0.4143
 IR Inten    --     36.6840                10.4364                14.3098

                     13                     14                     15
                      A                      A                      A
 Frequencies --    337.3637               389.7788               412.4014
 Red. masses --      1.5947                 2.9628                 1.2680
 Frc consts  --      0.1069                 0.2652                 0.1271
 IR Inten    --    150.5734                 8.7126                47.1799

                     16                     17                     18
                      A                      A                      A
 Frequencies --    421.5664               432.0237               478.6600
 Red. masses --      3.4119                 1.0871                 1.1992
 Frc consts  --      0.3573                 0.1195                 0.1619
 IR Inten    --     17.4816               146.6023                71.9463

                     19                     20                     21
                      A                      A                      A
 Frequencies --    487.8704               532.3036               660.3493
 Red. masses --      3.7115                 2.4063                 2.2472
 Frc consts  --      0.5205                 0.4017                 0.5774
 IR Inten    --      8.8419                 9.1390                69.8628

                     22                     23                     24
                      A                      A                      A
 Frequencies --    693.8094               747.5668               777.2380
 Red. masses --      1.4156                 1.9138                 1.4953
 Frc consts  --      0.4015                 0.6301                 0.5322
 IR Inten    --    134.1710                37.4607                26.1265

                     25                     26                     27
                      A                      A                      A
 Frequencies --    818.6907               837.2846               884.8142
 Red. masses --      3.9785                 4.0694                 2.5405
 Frc consts  --      1.5711                 1.6808                 1.1718
 IR Inten    --     11.7967                31.2490                31.3726

                     28                     29                     30
                      A                      A                      A
 Frequencies --    903.5650               931.7448               995.6476
 Red. masses --      3.0831                 1.7681                 1.9596
 Frc consts  --      1.4831                 0.9044                 1.1445
 IR Inten    --      8.9123                23.8575                 5.0273

                     31                     32                     33
                      A                      A                      A
 Frequencies --   1029.2631              1076.1321              1097.4589
 Red. masses --      2.6402                 3.7068                 4.3059
 Frc consts  --      1.6479                 2.5292                 3.0555
 IR Inten    --     18.0366                78.3551               128.1318

                     34                     35                     36
                      A                      A                      A
 Frequencies --   1111.0864              1116.2550              1140.7390
 Red. masses --      2.1461                 2.0462                 2.7605
 Frc consts  --      1.5610                 1.5022                 2.1164
 IR Inten    --     75.7188                31.5759                98.7815

                     37                     38                     39
                      A                      A                      A
 Frequencies --   1151.8652              1166.7382              1218.8871
 Red. masses --      3.8471                 2.9873                 1.1215
 Frc consts  --      3.0074                 2.3959                 0.9817
 IR Inten    --     67.7733                49.5043                 5.3118

                     40                     41                     42
                      A                      A                      A
 Frequencies --   1235.1750              1245.9491              1275.5200
 Red. masses --      1.1718                 1.2612                 1.2460
 Frc consts  --      1.0533                 1.1535                 1.1944
 IR Inten    --     24.6945                38.7512                28.3173

                     43                     44                     45
                      A                      A                      A
 Frequencies --   1307.8929              1334.2464              1337.4268
 Red. masses --      1.3711                 1.4275                 1.5038
 Frc consts  --      1.3819                 1.4973                 1.5848
 IR Inten    --      3.8033                 8.1267                16.9172

                     46                     47                     48
                      A                      A                      A
 Frequencies --   1362.5135              1379.4614              1394.9594
 Red. masses --      1.4335                 1.3332                 1.3537
 Frc consts  --      1.5679                 1.4947                 1.5520
 IR Inten    --     20.0261                20.1470                 7.7505

                     49                     50                     51
                      A                      A                      A
 Frequencies --   1401.4589              1411.5354              1422.3754
 Red. masses --      1.1936                 1.3192                 1.3378
 Frc consts  --      1.3812                 1.5486                 1.5946
 IR Inten    --     33.7960                 3.4188                56.1451

                     52                     53                     54
                      A                      A                      A
 Frequencies --   1436.3026              1439.9856              1448.3215
 Red. masses --      1.2162                 1.3534                 1.4062
 Frc consts  --      1.4782                 1.6534                 1.7380
 IR Inten    --     19.2817                12.2506                35.0779

                     55                     56                     57
                      A                      A                      A
 Frequencies --   1470.7661              1479.5233              1504.7003
 Red. masses --      1.2152                 1.2383                 1.0919
 Frc consts  --      1.5487                 1.5970                 1.4565
 IR Inten    --     65.9958                87.0838                10.8794

                     58                     59                     60
                      A                      A                      A
 Frequencies --   1514.3198              3007.7053              3033.9891
 Red. masses --      1.0912                 1.0682                 1.0660
 Frc consts  --      1.4744                 5.6933                 5.7812
 IR Inten    --      2.5818                41.7186                30.2558

                     61                     62                     63
                      A                      A                      A
 Frequencies --   3060.0115              3078.4956              3085.0812
 Red. masses --      1.0840                 1.0860                 1.0855
 Frc consts  --      5.9801                 6.0641                 6.0872
 IR Inten    --     38.3379                21.4450                18.3434

                     64                     65                     66
                      A                      A                      A
 Frequencies --   3098.9600              3101.1778              3115.2969
 Red. masses --      1.0954                 1.0999                 1.0870
 Frc consts  --      6.1980                 6.2326                 6.2156
 IR Inten    --     19.2694                26.0393                20.2247

                     67                     68                     69
                      A                      A                      A
 Frequencies --   3713.2935              3760.0558              3817.0399
 Red. masses --      1.0662                 1.0654                 1.0653
 Frc consts  --      8.6618                 8.8750                 9.1452
 IR Inten    --    201.4131               162.5795                80.0836

                     70                     71                     72
                      A                      A                      A
 Frequencies --   3841.7920              3879.9741              3905.0283
 Red. masses --      1.0656                 1.0657                 1.0659
 Frc consts  --      9.2664                 9.4521                 9.5770
 IR Inten    --     67.0753                44.3821                37.6866

 - Thermochemistry -
 -------------------
 Temperature   298.150 Kelvin.  Pressure   1.00000 Atm.
 Atom     1 has atomic number  6 and mass  12.00000

 Molecular mass:   182.07904 amu.
 Principal axes and moments of inertia in atomic units:
                           1         2         3
     Eigenvalues --  1148.769273369.716403572.99744
           X            0.99998   0.00426  -0.00473
           Y           -0.00449   0.99872  -0.05039
           Z            0.00451   0.05041   0.99872
 This molecule is an asymmetric top.
 Rotational symmetry number  1.
 Warning -- assumption of classical behavior for rotation
           may cause significant error
 Rotational temperatures (Kelvin)      0.07540     0.02570     0.02424
 Rotational constants (GHZ):           1.57102     0.53558     0.50511
 Zero-point vibrational energy     586425.2 (Joules/Mol)
                                  140.15898 (Kcal/Mol)
 Warning -- explicit consideration of  20 degrees of freedom as
           vibrations may cause significant error
 Vibrational temperatures:     78.91   133.92   147.41   161.00   189.94
          (Kelvin)            243.71   283.65   376.34   386.96   397.63
                              440.15   456.90   485.39   560.80   593.35
                              606.54   621.59   688.69   701.94   765.87
                              950.10   998.24  1075.58  1118.27  1177.91
                             1204.67  1273.05  1300.03  1340.57  1432.51
                             1480.88  1548.31  1579.00  1598.61  1606.04
                             1641.27  1657.28  1678.68  1753.71  1777.14
                             1792.64  1835.19  1881.77  1919.68  1924.26
                             1960.35  1984.74  2007.04  2016.39  2030.88
                             2046.48  2066.52  2071.82  2083.81  2116.10
                             2128.70  2164.93  2178.77  4327.42  4365.23
                             4402.67  4429.27  4438.74  4458.71  4461.90
                             4482.22  5342.60  5409.88  5491.87  5527.48
                             5582.42  5618.46

 Zero-point correction=                           0.223358 (Hartree/Particle)
 Thermal correction to Energy=                    0.236611
 Thermal correction to Enthalpy=                  0.237555
 Thermal correction to Gibbs Free Energy=         0.184241
 Sum of electronic and zero-point Energies=           -688.260464
 Sum of electronic and thermal Energies=              -688.247211
 Sum of electronic and thermal Enthalpies=            -688.246267
 Sum of electronic and thermal Free Energies=         -688.299581

                     E (Thermal)             CV                S
                      KCal/Mol        Cal/Mol-Kelvin    Cal/Mol-Kelvin
 Total                  148.476             49.807            112.209
 Electronic               0.000              0.000              0.000
 Translational            0.889              2.981             41.504
 Rotational               0.889              2.981             31.004
 Vibrational            146.698             43.845             39.701
 Vibration     1          0.596              1.976              4.635
 Vibration     2          0.602              1.954              3.594
 Vibration     3          0.605              1.947              3.407
 Vibration     4          0.607              1.940              3.236
 Vibration     5          0.612              1.921              2.917
 Vibration     6          0.625              1.880              2.442
 Vibration     7          0.637              1.844              2.160
 Vibration     8          0.669              1.743              1.651
 Vibration     9          0.673              1.730              1.603
 Vibration    10          0.678              1.717              1.556
 Vibration    11          0.696              1.662              1.384
 Vibration    12          0.704              1.640              1.323
 Vibration    13          0.718              1.601              1.225
 Vibration    14          0.758              1.492              1.001
 Vibration    15          0.776              1.443              0.918
 Vibration    16          0.784              1.423              0.887
 Vibration    17          0.793              1.400              0.852
 Vibration    18          0.835              1.297              0.714
 Vibration    19          0.844              1.277              0.689
 Vibration    20          0.887              1.179              0.582

 Optimization completed.
    -- Stationary point found.
 Normal termination of Gaussian 16 at Wed Sep 27 12:22:49 2023.
