 Gaussian 16, Revision C.01,
 Gaussian 16:  ES64L-G16RevC.01  3-Jul-2019

 ---------------------------------------------
 # opt freq wb97xd/def2tzvpp geom=connectivity
 ---------------------------------------------

 --------------------------------
 Mannitol Conformer Optimziations
 --------------------------------
 Symbolic Z-matrix:
 Charge =  0 Multiplicity = 1

 SCF Done:  E(RwB97XD) =  -688.468447073     A.U. after   14 cycles
 SCF Done:  E(RwB97XD) =  -688.477822597     A.U. after   11 cycles
 SCF Done:  E(RwB97XD) =  -688.478452098     A.U. after   11 cycles
 SCF Done:  E(RwB97XD) =  -688.478522467     A.U. after   12 cycles
 SCF Done:  E(RwB97XD) =  -688.479043547     A.U. after   11 cycles
 SCF Done:  E(RwB97XD) =  -688.479075638     A.U. after   11 cycles
 SCF Done:  E(RwB97XD) =  -688.479139876     A.U. after   10 cycles
 SCF Done:  E(RwB97XD) =  -688.479159863     A.U. after   11 cycles
 SCF Done:  E(RwB97XD) =  -688.479174220     A.U. after   10 cycles
 SCF Done:  E(RwB97XD) =  -688.479186007     A.U. after   10 cycles
 SCF Done:  E(RwB97XD) =  -688.479189211     A.U. after    8 cycles
 SCF Done:  E(RwB97XD) =  -688.479190331     A.U. after    8 cycles
 SCF Done:  E(RwB97XD) =  -688.479190562     A.U. after    7 cycles
 Optimization completed.
    -- Stationary point found.
 Normal termination of Gaussian 16 at Wed Sep 27 11:36:15 2023.

 ----------------------------------------------------------------------
 #N Geom=AllCheck Guess=TCheck SCRF=Check GenChk RwB97XD/def2TZVPP Freq
 ----------------------------------------------------------------------

 Structure from the checkpoint file:  "MannitolConformerOpt_2.chk"
 --------------------------------
 Mannitol Conformer Optimziations
 --------------------------------
 Charge =  0 Multiplicity = 1

                         Standard orientation:
 ---------------------------------------------------------------------
 Center     Atomic      Atomic             Coordinates (Angstroms)
 Number     Number       Type             X           Y           Z
 ---------------------------------------------------------------------
      1          6           0       -0.637565    0.791246   -0.342165
      2          6           0        0.683134    0.969488    0.404438
      3          6           0       -1.617765   -0.152364    0.340374
      4          6           0        1.597377   -0.248554    0.517413
      5          1           0        0.447209    1.296027    1.425467
      6          1           0       -0.432658    0.404134   -1.349119
      7          6           0       -2.983627   -0.123563   -0.334966
      8          1           0       -1.736277    0.167894    1.386545
      9          6           0        1.913391   -0.909600   -0.813234
     10          1           0        1.133849   -0.987363    1.174493
     11          1           0       -3.443350    0.859137   -0.235037
     12          1           0       -2.867582   -0.346549   -1.396535
     13          1           0        2.221984   -0.151006   -1.538949
     14          1           0        1.025852   -1.429588   -1.178727
     15          8           0       -3.807480   -1.152284    0.195947
     16          1           0       -4.166425   -0.859225    1.032766
     17          8           0       -1.099739   -1.463769    0.290012
     18          1           0       -1.846876   -2.054876    0.414327
     19          8           0       -1.276178    2.047645   -0.428561
     20          1           0       -0.590243    2.691038   -0.621637
     21          8           0        1.357349    2.015444   -0.275235
     22          1           0        2.243784    2.048376    0.093555
     23          8           0        2.791811    0.248165    1.104560
     24          1           0        3.473202   -0.405528    0.930634
     25          8           0        2.971587   -1.824733   -0.559285
     26          1           0        3.309053   -2.156132   -1.388450
 ---------------------------------------------------------------------

 SCF Done:  E(RwB97XD) =  -688.479190562     A.U. after    1 cycles

 The electronic state is 1-A.
 Alpha  occ. eigenvalues --  -19.26560 -19.26260 -19.25343 -19.25287 -19.25075
 Alpha  occ. eigenvalues --  -19.24797 -10.33937 -10.33841 -10.33757 -10.33310
 Alpha  occ. eigenvalues --  -10.33177 -10.32957  -1.15995  -1.15290  -1.14291
 Alpha  occ. eigenvalues --   -1.12631  -1.12208  -1.10942  -0.88791  -0.85325
 Alpha  occ. eigenvalues --   -0.80331  -0.75393  -0.71318  -0.67488  -0.63950
 Alpha  occ. eigenvalues --   -0.63394  -0.61188  -0.60395  -0.59411  -0.57014
 Alpha  occ. eigenvalues --   -0.56809  -0.56112  -0.53917  -0.52154  -0.50164
 Alpha  occ. eigenvalues --   -0.49502  -0.48684  -0.46015  -0.45599  -0.43915
 Alpha  occ. eigenvalues --   -0.43519  -0.42995  -0.42491  -0.38672  -0.37763
 Alpha  occ. eigenvalues --   -0.36996  -0.36638  -0.35851  -0.35623
 Alpha virt. eigenvalues --    0.09576   0.09886   0.12279   0.13014   0.14196
 Alpha virt. eigenvalues --    0.14849   0.16322   0.17750   0.18763   0.19514
 Alpha virt. eigenvalues --    0.19885   0.20472   0.21529   0.21936   0.22347

 Mulliken charges:
               1
     1  C    0.127448
     2  C    0.072442
     3  C    0.113403
     4  C    0.180560
     5  H    0.089805
     6  H    0.068000
     7  C    0.035890
     8  H    0.042602
     9  C   -0.049289
    10  H    0.069753
    11  H    0.095358
    12  H    0.075510
    13  H    0.095664
    14  H    0.081958
    15  O   -0.353010
    16  H    0.175451
    17  O   -0.352461
    18  H    0.177222
    19  O   -0.367393
    20  H    0.193230
    21  O   -0.388629
    22  H    0.191068
    23  O   -0.393683
    24  H    0.196837
    25  O   -0.348573
    26  H    0.170837
 Sum of Mulliken charges =   0.00000

 Dipole moment (field-independent basis, Debye):
    X=              0.2076    Y=             -0.6850    Z=             -0.4675  Tot=              0.8549
 Quadrupole moment (field-independent basis, Debye-Ang):
   XX=            -66.1734   YY=            -74.9113   ZZ=            -68.1531
   XY=             -2.3280   XZ=            -11.0311   YZ=              2.3028

  Exact polarizability:     109.476      -1.213      94.005      -1.260       0.773      84.116
 Approx polarizability:     105.433      -0.597     104.031      -1.643       0.426      99.444

                      1                      2                      3
                      A                      A                      A
 Frequencies --     47.9971                69.0331               110.9490
 Red. masses --      4.5791                 5.5943                 4.2673
 Frc consts  --      0.0062                 0.0157                 0.0309
 IR Inten    --      2.9208                 2.4369                 1.2136

                      4                      5                      6
                      A                      A                      A
 Frequencies --    121.3347               132.2531               154.5328
 Red. masses --      4.9813                 3.5127                 3.2727
 Frc consts  --      0.0432                 0.0362                 0.0460
 IR Inten    --      3.3213                 5.3766                 4.1153

                      7                      8                      9
                      A                      A                      A
 Frequencies --    184.8616               234.3934               248.8275
 Red. masses --      4.8666                 1.1261                 4.9878
 Frc consts  --      0.0980                 0.0365                 0.1820
 IR Inten    --      6.3452                99.1989                 2.4359

                     10                     11                     12
                      A                      A                      A
 Frequencies --    291.7504               298.4022               311.7284
 Red. masses --      2.6556                 2.1493                 2.1856
 Frc consts  --      0.1332                 0.1128                 0.1251
 IR Inten    --     13.1476                40.7575                49.0424

                     13                     14                     15
                      A                      A                      A
 Frequencies --    327.5660               346.9755               364.9449
 Red. masses --      4.6465                 4.6973                 4.5999
 Frc consts  --      0.2937                 0.3332                 0.3610
 IR Inten    --      7.2063                 5.5516                 6.1414

                     16                     17                     18
                      A                      A                      A
 Frequencies --    402.6844               450.8930               476.2390
 Red. masses --      2.4730                 1.3249                 1.2634
 Frc consts  --      0.2363                 0.1587                 0.1688
 IR Inten    --      7.0378                41.2026               198.2979

                     19                     20                     21
                      A                      A                      A
 Frequencies --    483.8947               500.1198               523.6200
 Red. masses --      1.3153                 1.2632                 1.7347
 Frc consts  --      0.1815                 0.1862                 0.2802
 IR Inten    --     23.9476                67.7707                92.4089

                     22                     23                     24
                      A                      A                      A
 Frequencies --    550.1109               569.1404               626.2851
 Red. masses --      2.7091                 3.6121                 3.1762
 Frc consts  --      0.4830                 0.6894                 0.7340
 IR Inten    --     23.0386                 7.9909                47.9383

                     25                     26                     27
                      A                      A                      A
 Frequencies --    729.2769               873.6639               908.7256
 Red. masses --      3.8199                 2.8337                 2.2224
 Frc consts  --      1.1970                 1.2744                 1.0813
 IR Inten    --     30.2395                23.2074                18.8209

                     28                     29                     30
                      A                      A                      A
 Frequencies --    966.1620              1013.6007              1049.0749
 Red. masses --      2.4788                 2.3836                 2.9219
 Frc consts  --      1.3633                 1.4428                 1.8947
 IR Inten    --     20.5109                31.1708                60.6889

                     31                     32                     33
                      A                      A                      A
 Frequencies --   1077.1811              1088.6691              1094.5846
 Red. masses --      2.4360                 3.3881                 2.6253
 Frc consts  --      1.6653                 2.3659                 1.8532
 IR Inten    --      6.0008                86.1793                89.0583

                     34                     35                     36
                      A                      A                      A
 Frequencies --   1101.9994              1128.6203              1132.5602
 Red. masses --      3.5062                 4.6072                 2.8617
 Frc consts  --      2.5087                 3.4577                 2.1627
 IR Inten    --     61.2835               129.8644                92.7257

                     37                     38                     39
                      A                      A                      A
 Frequencies --   1149.6026              1172.0647              1188.8393
 Red. masses --      3.0158                 2.7269                 1.2492
 Frc consts  --      2.3482                 2.2071                 1.0402
 IR Inten    --      9.0994                14.3453                64.6717

                     40                     41                     42
                      A                      A                      A
 Frequencies --   1233.2785              1268.1896              1273.9933
 Red. masses --      1.2675                 1.2278                 1.2332
 Frc consts  --      1.1359                 1.1634                 1.1793
 IR Inten    --     29.7178                30.7376                29.9131

                     43                     44                     45
                      A                      A                      A
 Frequencies --   1291.5292              1301.0140              1316.6412
 Red. masses --      1.1066                 1.1168                 1.1262
 Frc consts  --      1.0875                 1.1137                 1.1502
 IR Inten    --     30.1588                19.1351                 3.2902

                     46                     47                     48
                      A                      A                      A
 Frequencies --   1352.2351              1369.3761              1377.5971
 Red. masses --      1.2144                 1.1967                 1.2345
 Frc consts  --      1.3083                 1.3222                 1.3804
 IR Inten    --     77.4122                34.5208                15.9396

                     49                     50                     51
                      A                      A                      A
 Frequencies --   1388.7024              1397.4807              1403.4014
 Red. masses --      1.2921                 1.2327                 1.2696
 Frc consts  --      1.4682                 1.4184                 1.4733
 IR Inten    --     10.6025                36.2891                 3.5199

                     52                     53                     54
                      A                      A                      A
 Frequencies --   1419.7620              1426.3140              1455.1743
 Red. masses --      1.3924                 1.3710                 1.5978
 Frc consts  --      1.6536                 1.6433                 1.9935
 IR Inten    --     35.6439                55.7341                 9.6676

                     55                     56                     57
                      A                      A                      A
 Frequencies --   1477.7531              1494.3696              1505.0304
 Red. masses --      1.6400                 1.9258                 1.0866
 Frc consts  --      2.1101                 2.5339                 1.4501
 IR Inten    --     11.3162                 3.6422                 4.0467

                     58                     59                     60
                      A                      A                      A
 Frequencies --   1526.0804              2975.9944              3004.0417
 Red. masses --      1.0829                 1.0820                 1.0815
 Frc consts  --      1.4858                 5.6458                 5.7503
 IR Inten    --      6.4481                28.6449                 5.6136

                     61                     62                     63
                      A                      A                      A
 Frequencies --   3019.7865              3039.9744              3078.1185
 Red. masses --      1.0852                 1.0605                 1.0588
 Frc consts  --      5.8308                 5.7743                 5.9106
 IR Inten    --     83.9788                27.9407                20.8347

                     64                     65                     66
                      A                      A                      A
 Frequencies --   3084.3966              3107.1140              3138.2745
 Red. masses --      1.0851                 1.1037                 1.1088
 Frc consts  --      6.0822                 6.2779                 6.4342
 IR Inten    --     13.4024                26.6133                18.6735

                     67                     68                     69
                      A                      A                      A
 Frequencies --   3848.1846              3857.2981              3861.7963
 Red. masses --      1.0654                 1.0654                 1.0654
 Frc consts  --      9.2957                 9.3394                 9.3612
 IR Inten    --     95.7356               142.0220                44.9383

                     70                     71                     72
                      A                      A                      A
 Frequencies --   3866.4392              3916.4725              3948.6151
 Red. masses --      1.0654                 1.0664                 1.0668
 Frc consts  --      9.3840                 9.6378                 9.8003
 IR Inten    --     59.4822                40.3782                55.8755

 - Thermochemistry -
 -------------------
 Temperature   298.150 Kelvin.  Pressure   1.00000 Atm.
 Atom     1 has atomic number  6 and mass  12.00000

 Molecular mass:   182.07904 amu.
 Principal axes and moments of inertia in atomic units:
                           1         2         3
     Eigenvalues --  1300.580623363.222274197.43466
           X            0.99996  -0.00494  -0.00677
           Y            0.00499   0.99995   0.00847
           Z            0.00673  -0.00850   0.99994
 This molecule is an asymmetric top.
 Rotational symmetry number  1.
 Warning -- assumption of classical behavior for rotation
           may cause significant error
 Rotational temperatures (Kelvin)      0.06660     0.02575     0.02063
 Rotational constants (GHZ):           1.38764     0.53661     0.42996
 Zero-point vibrational energy     583344.5 (Joules/Mol)
                                  139.42269 (Kcal/Mol)
 Warning -- explicit consideration of  23 degrees of freedom as
           vibrations may cause significant error
 Vibrational temperatures:     69.06    99.32   159.63   174.57   190.28
          (Kelvin)            222.34   265.97   337.24   358.01   419.76
                              429.33   448.51   471.29   499.22   525.07
                              579.37   648.73   685.20   696.22   719.56
                              753.37   791.49   818.87   901.08  1049.27
                             1257.01  1307.45  1390.09  1458.35  1509.38
                             1549.82  1566.35  1574.86  1585.53  1623.83
                             1629.50  1654.02  1686.34  1710.47  1774.41
                             1824.64  1832.99  1858.22  1871.87  1894.35
                             1945.56  1970.23  1982.05  1998.03  2010.66
                             2019.18  2042.72  2052.15  2093.67  2126.16
                             2150.06  2165.40  2195.69  4281.79  4322.15
                             4344.80  4373.85  4428.73  4437.76  4470.44
                             4515.28  5536.68  5549.79  5556.26  5562.94
                             5634.93  5681.18

 Zero-point correction=                           0.222184 (Hartree/Particle)
 Thermal correction to Energy=                    0.235985
 Thermal correction to Enthalpy=                  0.236930
 Thermal correction to Gibbs Free Energy=         0.182288
 Sum of electronic and zero-point Energies=           -688.257006
 Sum of electronic and thermal Energies=              -688.243205
 Sum of electronic and thermal Enthalpies=            -688.242261
 Sum of electronic and thermal Free Energies=         -688.296903

                     E (Thermal)             CV                S
                      KCal/Mol        Cal/Mol-Kelvin    Cal/Mol-Kelvin
 Total                  148.083             51.303            115.003
 Electronic               0.000              0.000              0.000
 Translational            0.889              2.981             41.504
 Rotational               0.889              2.981             31.285
 Vibrational            146.306             45.342             42.214
 Vibration     1          0.595              1.978              4.898
 Vibration     2          0.598              1.969              4.181
 Vibration     3          0.607              1.940              3.252
 Vibration     4          0.609              1.931              3.079
 Vibration     5          0.612              1.921              2.913
 Vibration     6          0.620              1.898              2.616
 Vibration     7          0.631              1.861              2.279
 Vibration     8          0.654              1.788              1.845
 Vibration     9          0.662              1.765              1.739
 Vibration    10          0.687              1.689              1.464
 Vibration    11          0.691              1.677              1.426
 Vibration    12          0.700              1.651              1.353
 Vibration    13          0.711              1.620              1.272
 Vibration    14          0.725              1.581              1.180
 Vibration    15          0.738              1.544              1.101
 Vibration    16          0.768              1.464              0.953
 Vibration    17          0.810              1.359              0.793
 Vibration    18          0.833              1.303              0.720
 Vibration    19          0.840              1.286              0.700
 Vibration    20          0.856              1.250              0.658
 Vibration    21          0.879              1.198              0.602
 Vibration    22          0.905              1.139              0.544
 Vibration    23          0.925              1.098              0.506

                           ! Non-Optimized Parameters !
 Normal termination of Gaussian 16 at Wed Sep 27 12:16:55 2023.
