 Gaussian 16, Revision C.01,
 Gaussian 16:  ES64L-G16RevC.01  3-Jul-2019

 ---------------------------------------------
 # opt freq wb97xd/Def2TZVPP geom=connectivity
 ---------------------------------------------

 -------------------
 Title Card Required
 -------------------
 Symbolic Z-matrix:
 Charge =  0 Multiplicity = 1

 SCF Done:  E(RwB97XD) =  -688.468316206     A.U. after   13 cycles
 SCF Done:  E(RwB97XD) =  -688.477300699     A.U. after   12 cycles
 SCF Done:  E(RwB97XD) =  -688.478475552     A.U. after   12 cycles
 SCF Done:  E(RwB97XD) =  -688.478717067     A.U. after   11 cycles
 SCF Done:  E(RwB97XD) =  -688.478921992     A.U. after   11 cycles
 SCF Done:  E(RwB97XD) =  -688.479173692     A.U. after   11 cycles
 SCF Done:  E(RwB97XD) =  -688.479249348     A.U. after   10 cycles
 SCF Done:  E(RwB97XD) =  -688.479263967     A.U. after   10 cycles
 SCF Done:  E(RwB97XD) =  -688.479287679     A.U. after   10 cycles
 SCF Done:  E(RwB97XD) =  -688.479293700     A.U. after    9 cycles
 SCF Done:  E(RwB97XD) =  -688.479298187     A.U. after   10 cycles
 SCF Done:  E(RwB97XD) =  -688.479299824     A.U. after    8 cycles
 SCF Done:  E(RwB97XD) =  -688.479300716     A.U. after    8 cycles
 SCF Done:  E(RwB97XD) =  -688.479300926     A.U. after    8 cycles
 SCF Done:  E(RwB97XD) =  -688.479301110     A.U. after    7 cycles
 Optimization completed.
    -- Stationary point found.
 Normal termination of Gaussian 16 at Wed Oct 11 14:50:34 2023.

 ----------------------------------------------------------------------
 #N Geom=AllCheck Guess=TCheck SCRF=Check GenChk RwB97XD/def2TZVPP Freq
 ----------------------------------------------------------------------

 Structure from the checkpoint file:  "MannitolConformerOpt_36.chk"
 -------------------
 Title Card Required
 -------------------
 Charge =  0 Multiplicity = 1

                         Standard orientation:
 ---------------------------------------------------------------------
 Center     Atomic      Atomic             Coordinates (Angstroms)
 Number     Number       Type             X           Y           Z
 ---------------------------------------------------------------------
      1          6           0        0.587731   -0.651735   -0.515629
      2          6           0       -0.368668    0.531385   -0.514688
      3          6           0        2.054967   -0.266007   -0.836870
      4          6           0       -1.844457    0.150061   -0.633865
      5          1           0       -0.142671    1.128496   -1.409880
      6          1           0        0.262612   -1.321510   -1.324730
      7          6           0        2.586489    0.991437   -0.161306
      8          1           0        2.126723   -0.121945   -1.918864
      9          6           0       -2.355679   -0.780667    0.454078
     10          1           0       -2.002265   -0.326432   -1.609229
     11          1           0        1.989666    1.860942   -0.444574
     12          1           0        3.608288    1.154773   -0.508480
     13          1           0       -2.060655   -0.399891    1.434551
     14          1           0       -1.931789   -1.777340    0.327374
     15          8           0        2.656480    0.841147    1.237781
     16          1           0        1.749492    0.844831    1.560332
     17          8           0        2.877979   -1.369552   -0.496196
     18          1           0        3.296501   -1.144766    0.339910
     19          8           0        0.499425   -1.323044    0.718091
     20          1           0        1.230504   -1.945515    0.729366
     21          8           0       -0.160805    1.311941    0.642454
     22          1           0       -0.892396    1.933172    0.683466
     23          8           0       -2.548704    1.377956   -0.581811
     24          1           0       -3.457862    1.161731   -0.358544
     25          8           0       -3.771796   -0.798452    0.313200
     26          1           0       -4.159083   -1.213349    1.080829
 ---------------------------------------------------------------------

 SCF Done:  E(RwB97XD) =  -688.479301110     A.U. after    1 cycles

 The electronic state is 1-A.
 Alpha  occ. eigenvalues --  -19.26688 -19.25946 -19.25844 -19.25805 -19.25210
 Alpha  occ. eigenvalues --  -19.24419 -10.34749 -10.34383 -10.34357 -10.33977
 Alpha  occ. eigenvalues --  -10.33316 -10.32722  -1.16651  -1.15621  -1.14095
 Alpha  occ. eigenvalues --   -1.12670  -1.12082  -1.11242  -0.89443  -0.85447
 Alpha  occ. eigenvalues --   -0.80514  -0.75873  -0.71678  -0.67320  -0.64103
 Alpha  occ. eigenvalues --   -0.63225  -0.61363  -0.60862  -0.58877  -0.58533
 Alpha  occ. eigenvalues --   -0.57730  -0.55505  -0.53509  -0.51970  -0.51545
 Alpha  occ. eigenvalues --   -0.50022  -0.49246  -0.46310  -0.45276  -0.44677
 Alpha  occ. eigenvalues --   -0.43932  -0.42569  -0.42167  -0.38754  -0.38056
 Alpha  occ. eigenvalues --   -0.37622  -0.37142  -0.36917  -0.34464
 Alpha virt. eigenvalues --    0.09406   0.10136   0.11564   0.13284   0.14381
 Alpha virt. eigenvalues --    0.15603   0.16349   0.17102   0.17888   0.19535
 Alpha virt. eigenvalues --    0.19739   0.20516   0.20966   0.21282   0.22258

 Mulliken charges:
               1
     1  C    0.113134
     2  C    0.123219
     3  C    0.103354
     4  C    0.117224
     5  H    0.088179
     6  H    0.077641
     7  C    0.034119
     8  H    0.067262
     9  C   -0.002649
    10  H    0.060854
    11  H    0.075251
    12  H    0.094973
    13  H    0.096026
    14  H    0.081532
    15  O   -0.390333
    16  H    0.210826
    17  O   -0.382696
    18  H    0.189886
    19  O   -0.361897
    20  H    0.173830
    21  O   -0.383462
    22  H    0.179167
    23  O   -0.388914
    24  H    0.199224
    25  O   -0.350539
    26  H    0.174792
 Sum of Mulliken charges =  -0.00000

 Dipole moment (field-independent basis, Debye):
    X=             -1.9935    Y=             -0.6427    Z=             -0.1273  Tot=              2.0984
 Quadrupole moment (field-independent basis, Debye-Ang):
   XX=            -71.8559   YY=            -72.2254   ZZ=            -70.8303
   XY=              2.6685   XZ=             -8.0398   YZ=             -3.4760

  Exact polarizability:     110.236       0.175      89.174      -1.459      -1.486      86.496
 Approx polarizability:     105.441      -2.399     100.308      -0.166      -1.149     103.710

                      1                      2                      3
                      A                      A                      A
 Frequencies --     56.4065                72.2395                91.2417
 Red. masses --      5.1198                 6.3718                 5.2772
 Frc consts  --      0.0096                 0.0196                 0.0259
 IR Inten    --      1.5689                 0.6912                 2.1553

                      4                      5                      6
                      A                      A                      A
 Frequencies --    136.7214               150.9048               170.9226
 Red. masses --      3.0243                 5.3643                 4.6916
 Frc consts  --      0.0333                 0.0720                 0.0808
 IR Inten    --      3.5608                 2.7969                 9.1452

                      7                      8                      9
                      A                      A                      A
 Frequencies --    201.5283               238.0947               259.8998
 Red. masses --      3.9219                 4.2966                 1.2441
 Frc consts  --      0.0938                 0.1435                 0.0495
 IR Inten    --      3.0453                 3.9355                94.9258

                     10                     11                     12
                      A                      A                      A
 Frequencies --    275.5343               297.7425               326.5342
 Red. masses --      4.1697                 6.1437                 2.1204
 Frc consts  --      0.1865                 0.3209                 0.1332
 IR Inten    --     10.8838                 3.9832                55.9948

                     13                     14                     15
                      A                      A                      A
 Frequencies --    335.0260               354.8239               372.4801
 Red. masses --      3.8327                 4.9450                 1.7976
 Frc consts  --      0.2535                 0.3668                 0.1469
 IR Inten    --     23.6286                11.4930                87.8870

                     16                     17                     18
                      A                      A                      A
 Frequencies --    398.7233               460.2022               503.0921
 Red. masses --      2.7327                 1.0772                 1.4070
 Frc consts  --      0.2560                 0.1344                 0.2098
 IR Inten    --     28.8056                80.7741                62.0402

                     19                     20                     21
                      A                      A                      A
 Frequencies --    509.7768               542.1533               566.9124
 Red. masses --      1.1610                 2.0928                 2.6972
 Frc consts  --      0.1778                 0.3624                 0.5107
 IR Inten    --     99.5492                72.9735                21.4901

                     22                     23                     24
                      A                      A                      A
 Frequencies --    632.2730               699.0801               736.6411
 Red. masses --      1.0849                 3.5361                 4.9990
 Frc consts  --      0.2555                 1.0182                 1.5983
 IR Inten    --      9.5410                61.4341                12.4195

                     25                     26                     27
                      A                      A                      A
 Frequencies --    809.3056               835.5913               866.8008
 Red. masses --      3.8808                 4.1962                 3.1494
 Frc consts  --      1.4976                 1.7262                 1.3942
 IR Inten    --     38.5500                 4.5621                15.6145

                     28                     29                     30
                      A                      A                      A
 Frequencies --    923.9178               969.9208               991.0021
 Red. masses --      2.7673                 2.0679                 2.0901
 Frc consts  --      1.3918                 1.1462                 1.2094
 IR Inten    --      5.6082                21.2086                22.3833

                     31                     32                     33
                      A                      A                      A
 Frequencies --   1036.5811              1076.1039              1099.0385
 Red. masses --      2.0995                 3.7736                 3.0569
 Frc consts  --      1.3291                 2.5746                 2.1755
 IR Inten    --      5.2629                16.3293               166.8984

                     34                     35                     36
                      A                      A                      A
 Frequencies --   1101.8274              1135.2367              1137.9646
 Red. masses --      2.6620                 2.7678                 2.9419
 Frc consts  --      1.9041                 2.1016                 2.2446
 IR Inten    --     17.5571                17.9733                94.3666

                     37                     38                     39
                      A                      A                      A
 Frequencies --   1145.9725              1185.3321              1219.4953
 Red. masses --      3.2731                 2.7079                 1.0850
 Frc consts  --      2.5326                 2.2416                 0.9507
 IR Inten    --    158.7217                66.4786                26.2394

                     40                     41                     42
                      A                      A                      A
 Frequencies --   1239.9170              1251.1541              1272.4850
 Red. masses --      1.2025                 1.1665                 1.1769
 Frc consts  --      1.0892                 1.0759                 1.1228
 IR Inten    --     21.4543                18.0605                24.8534

                     43                     44                     45
                      A                      A                      A
 Frequencies --   1293.5926              1296.4715              1322.7547
 Red. masses --      1.2937                 1.1030                 1.1891
 Frc consts  --      1.2755                 1.0924                 1.2258
 IR Inten    --     24.8081                31.8420                34.7042

                     46                     47                     48
                      A                      A                      A
 Frequencies --   1360.0630              1370.1834              1386.3086
 Red. masses --      1.2292                 1.3804                 1.2376
 Frc consts  --      1.3397                 1.5269                 1.4013
 IR Inten    --     62.8754                16.3130                 5.5799

                     49                     50                     51
                      A                      A                      A
 Frequencies --   1406.1251              1410.4120              1419.9831
 Red. masses --      1.3293                 1.3047                 1.3785
 Frc consts  --      1.5486                 1.5292                 1.6376
 IR Inten    --      5.1539                10.4387                27.5269

                     52                     53                     54
                      A                      A                      A
 Frequencies --   1428.8479              1438.1765              1451.8776
 Red. masses --      1.3763                 1.2854                 1.3659
 Frc consts  --      1.6555                 1.5664                 1.6964
 IR Inten    --     14.6536                37.1624                56.0314

                     55                     56                     57
                      A                      A                      A
 Frequencies --   1478.3858              1493.1285              1506.2647
 Red. masses --      1.5987                 1.8761                 1.0827
 Frc consts  --      2.0587                 2.4644                 1.4473
 IR Inten    --     12.0417                34.2313                13.3916

                     58                     59                     60
                      A                      A                      A
 Frequencies --   1515.9815              2983.9503              2990.8201
 Red. masses --      1.0965                 1.0831                 1.0824
 Frc consts  --      1.4848                 5.6822                 5.7044
 IR Inten    --      6.6652                26.1492                28.1758

                     61                     62                     63
                      A                      A                      A
 Frequencies --   3022.2944              3054.2355              3062.9982
 Red. masses --      1.0846                 1.0759                 1.0582
 Frc consts  --      5.8371                 5.9131                 5.8497
 IR Inten    --     47.8983                12.4938                19.7859

                     64                     65                     66
                      A                      A                      A
 Frequencies --   3069.3262              3110.7892              3120.8817
 Red. masses --      1.0684                 1.1075                 1.1074
 Frc consts  --      5.9301                 6.3144                 6.3549
 IR Inten    --     70.0437                28.8350                24.7666

                     67                     68                     69
                      A                      A                      A
 Frequencies --   3826.3025              3836.5422              3853.7516
 Red. masses --      1.0653                 1.0660                 1.0653
 Frc consts  --      9.1893                 9.2446                 9.3220
 IR Inten    --     84.7847               109.3417               132.9894

                     70                     71                     72
                      A                      A                      A
 Frequencies --   3859.0670              3863.7670              3948.0331
 Red. masses --      1.0652                 1.0647                 1.0669
 Frc consts  --      9.3464                 9.3646                 9.7975
 IR Inten    --     44.3642                57.0040                58.3700

 - Thermochemistry -
 -------------------
 Temperature   298.150 Kelvin.  Pressure   1.00000 Atm.
 Atom     1 has atomic number  6 and mass  12.00000

 Molecular mass:   182.07904 amu.
 Principal axes and moments of inertia in atomic units:
                           1         2         3
     Eigenvalues --  1000.234763554.297383910.66920
           X            0.99993   0.00894  -0.00802
           Y           -0.00914   0.99963  -0.02581
           Z            0.00778   0.02588   0.99963
 This molecule is an asymmetric top.
 Rotational symmetry number  1.
 Warning -- assumption of classical behavior for rotation
           may cause significant error
 Rotational temperatures (Kelvin)      0.08659     0.02437     0.02215
 Rotational constants (GHZ):           1.80432     0.50776     0.46149
 Zero-point vibrational energy     585380.1 (Joules/Mol)
                                  139.90921 (Kcal/Mol)
 Warning -- explicit consideration of  21 degrees of freedom as
           vibrations may cause significant error
 Vibrational temperatures:     81.16   103.94   131.28   196.71   217.12
          (Kelvin)            245.92   289.95   342.57   373.94   396.43
                              428.39   469.81   482.03   510.51   535.92
                              573.67   662.13   723.84   733.46   780.04
                              815.66   909.70  1005.82  1059.86  1164.41
                             1202.23  1247.13  1329.31  1395.50  1425.83
                             1491.41  1548.27  1581.27  1585.28  1633.35
                             1637.28  1648.80  1705.43  1754.58  1783.96
                             1800.13  1830.82  1861.19  1865.33  1903.15
                             1956.83  1971.39  1994.59  2023.10  2029.27
                             2043.04  2055.79  2069.22  2088.93  2127.07
                             2148.28  2167.18  2181.16  4293.24  4303.12
                             4348.41  4394.36  4406.97  4416.08  4475.73
                             4490.25  5505.20  5519.93  5544.69  5552.34
                             5559.10  5680.34

 Zero-point correction=                           0.222960 (Hartree/Particle)
 Thermal correction to Energy=                    0.236372
 Thermal correction to Enthalpy=                  0.237316
 Thermal correction to Gibbs Free Energy=         0.183675
 Sum of electronic and zero-point Energies=           -688.256342
 Sum of electronic and thermal Energies=              -688.242930
 Sum of electronic and thermal Enthalpies=            -688.241985
 Sum of electronic and thermal Free Energies=         -688.295626

                     E (Thermal)             CV                S
                      KCal/Mol        Cal/Mol-Kelvin    Cal/Mol-Kelvin
 Total                  148.325             50.319            112.896
 Electronic               0.000              0.000              0.000
 Translational            0.889              2.981             41.504
 Rotational               0.889              2.981             31.009
 Vibrational            146.548             44.358             40.383
 Vibration     1          0.596              1.975              4.579
 Vibration     2          0.598              1.967              4.091
 Vibration     3          0.602              1.955              3.633
 Vibration     4          0.614              1.917              2.849
 Vibration     5          0.618              1.902              2.661
 Vibration     6          0.626              1.878              2.425
 Vibration     7          0.638              1.838              2.119
 Vibration     8          0.656              1.782              1.817
 Vibration     9          0.668              1.746              1.662
 Vibration    10          0.677              1.719              1.561
 Vibration    11          0.691              1.678              1.430
 Vibration    12          0.710              1.622              1.277
 Vibration    13          0.716              1.606              1.236
 Vibration    14          0.731              1.565              1.145
 Vibration    15          0.744              1.529              1.070
 Vibration    16          0.765              1.473              0.967
 Vibration    17          0.818              1.338              0.766
 Vibration    18          0.858              1.243              0.650
 Vibration    19          0.865              1.228              0.634
 Vibration    20          0.897              1.157              0.561
 Vibration    21          0.923              1.103              0.510

 Optimization completed.
    -- Stationary point found.
 Normal termination of Gaussian 16 at Wed Oct 11 15:32:04 2023.
