 Gaussian 16, Revision C.01,
 Gaussian 16:  ES64L-G16RevC.01  3-Jul-2019

 ---------------------------------------------
 # opt freq wb97xd/Def2TZVPP geom=connectivity
 ---------------------------------------------

 -------------------
 Title Card Required
 -------------------
 Symbolic Z-matrix:
 Charge =  0 Multiplicity = 1

 SCF Done:  E(RwB97XD) =  -688.471201517     A.U. after   14 cycles
 SCF Done:  E(RwB97XD) =  -688.478709056     A.U. after   12 cycles
 SCF Done:  E(RwB97XD) =  -688.479603446     A.U. after   12 cycles
 SCF Done:  E(RwB97XD) =  -688.479895848     A.U. after   11 cycles
 SCF Done:  E(RwB97XD) =  -688.480590297     A.U. after   12 cycles
 SCF Done:  E(RwB97XD) =  -688.480757361     A.U. after   11 cycles
 SCF Done:  E(RwB97XD) =  -688.480813203     A.U. after   10 cycles
 SCF Done:  E(RwB97XD) =  -688.480865261     A.U. after   10 cycles
 SCF Done:  E(RwB97XD) =  -688.480888448     A.U. after   10 cycles
 SCF Done:  E(RwB97XD) =  -688.480895910     A.U. after    8 cycles
 SCF Done:  E(RwB97XD) =  -688.480899475     A.U. after    8 cycles
 SCF Done:  E(RwB97XD) =  -688.480900287     A.U. after    8 cycles
 SCF Done:  E(RwB97XD) =  -688.480900640     A.U. after    7 cycles
 SCF Done:  E(RwB97XD) =  -688.480900867     A.U. after    7 cycles
 Optimization completed.
    -- Stationary point found.
 Normal termination of Gaussian 16 at Wed Oct 11 14:46:50 2023.

 ----------------------------------------------------------------------
 #N Geom=AllCheck Guess=TCheck SCRF=Check GenChk RwB97XD/def2TZVPP Freq
 ----------------------------------------------------------------------

 Structure from the checkpoint file:  "MannitolConformerOpt_50.chk"
 -------------------
 Title Card Required
 -------------------
 Charge =  0 Multiplicity = 1

                         Standard orientation:
 ---------------------------------------------------------------------
 Center     Atomic      Atomic             Coordinates (Angstroms)
 Number     Number       Type             X           Y           Z
 ---------------------------------------------------------------------
      1          6           0       -0.553343    0.182541   -0.624400
      2          6           0        0.578966    0.700546    0.254859
      3          6           0       -1.462387   -0.859550    0.033510
      4          6           0        1.532928   -0.349529    0.838472
      5          1           0        0.145451    1.254084    1.094518
      6          1           0       -0.118671   -0.289904   -1.512736
      7          6           0       -2.335979   -0.292695    1.154298
      8          1           0       -0.825741   -1.640205    0.456578
      9          6           0        2.156687   -1.285423   -0.192997
     10          1           0        0.978741   -0.951091    1.563593
     11          1           0       -1.723612    0.264315    1.873158
     12          1           0       -2.803217   -1.120909    1.686190
     13          1           0        1.382278   -1.760940   -0.802362
     14          1           0        2.698762   -2.074759    0.327697
     15          8           0       -3.386216    0.497064    0.644682
     16          1           0       -2.982025    1.195683    0.120674
     17          8           0       -2.264825   -1.487536   -0.935293
     18          1           0       -3.055445   -0.949791   -1.032305
     19          8           0       -1.353745    1.281977   -1.034841
     20          1           0       -0.760603    1.960464   -1.362627
     21          8           0        1.295539    1.616372   -0.574327
     22          1           0        1.915389    2.083601   -0.011592
     23          8           0        2.552690    0.333708    1.543380
     24          1           0        3.340061    0.296575    0.992858
     25          8           0        3.111086   -0.613485   -0.989820
     26          1           0        2.671168    0.132745   -1.406343
 ---------------------------------------------------------------------

 SCF Done:  E(RwB97XD) =  -688.480900867     A.U. after    1 cycles

 The electronic state is 1-A.
 Alpha  occ. eigenvalues --  -19.28581 -19.27186 -19.26732 -19.26681 -19.24971
 Alpha  occ. eigenvalues --  -19.24901 -10.35743 -10.35530 -10.35255 -10.34738
 Alpha  occ. eigenvalues --  -10.34669 -10.33611  -1.18076  -1.16161  -1.14836
 Alpha  occ. eigenvalues --   -1.13433  -1.13084  -1.11771  -0.90895  -0.85526
 Alpha  occ. eigenvalues --   -0.81267  -0.77366  -0.73193  -0.68848  -0.66649
 Alpha  occ. eigenvalues --   -0.63217  -0.62330  -0.61580  -0.59500  -0.59133
 Alpha  occ. eigenvalues --   -0.57772  -0.55362  -0.54653  -0.53660  -0.52939
 Alpha  occ. eigenvalues --   -0.50829  -0.49552  -0.47825  -0.47034  -0.46605
 Alpha  occ. eigenvalues --   -0.44141  -0.43570  -0.42162  -0.40450  -0.39740
 Alpha  occ. eigenvalues --   -0.37948  -0.37876  -0.36754  -0.35717
 Alpha virt. eigenvalues --    0.08200   0.10583   0.11647   0.11916   0.13519
 Alpha virt. eigenvalues --    0.14185   0.15349   0.15989   0.17577   0.18058
 Alpha virt. eigenvalues --    0.18806   0.19681   0.20059   0.21150   0.21977

 Mulliken charges:
               1
     1  C    0.115055
     2  C    0.027158
     3  C    0.147555
     4  C    0.134748
     5  H    0.112977
     6  H    0.097646
     7  C    0.005170
     8  H    0.070306
     9  C   -0.002971
    10  H    0.065090
    11  H    0.066858
    12  H    0.089542
    13  H    0.083126
    14  H    0.098906
    15  O   -0.374261
    16  H    0.202503
    17  O   -0.362768
    18  H    0.189172
    19  O   -0.372104
    20  H    0.179392
    21  O   -0.395028
    22  H    0.183938
    23  O   -0.382179
    24  H    0.194593
    25  O   -0.369177
    26  H    0.194753
 Sum of Mulliken charges =  -0.00000

 Dipole moment (field-independent basis, Debye):
    X=              1.8548    Y=              1.3313    Z=              0.4971  Tot=              2.3366
 Quadrupole moment (field-independent basis, Debye-Ang):
   XX=            -84.8209   YY=            -69.1586   ZZ=            -75.7737
   XY=              1.4505   XZ=              0.2454   YZ=             -5.1177

  Exact polarizability:     107.306       0.402      89.710      -0.358      -1.172      86.629
 Approx polarizability:     106.973       1.012     102.365       0.531      -1.818     100.331

                      1                      2                      3
                      A                      A                      A
 Frequencies --     34.6665                56.9111                86.7249
 Red. masses --      5.4985                 5.5017                 5.3227
 Frc consts  --      0.0039                 0.0105                 0.0236
 IR Inten    --      1.3838                 0.8822                 5.0813

                      4                      5                      6
                      A                      A                      A
 Frequencies --    136.2901               164.0964               185.0155
 Red. masses --      5.6667                 4.5873                 4.2055
 Frc consts  --      0.0620                 0.0728                 0.0848
 IR Inten    --      5.8106                12.0880                 5.6692

                      7                      8                      9
                      A                      A                      A
 Frequencies --    224.1238               246.1056               258.9116
 Red. masses --      4.0081                 4.5030                 4.4742
 Frc consts  --      0.1186                 0.1607                 0.1767
 IR Inten    --     15.6471                 1.6682                14.3435

                     10                     11                     12
                      A                      A                      A
 Frequencies --    288.5616               303.6146               336.6966
 Red. masses --      2.8198                 3.2097                 3.4245
 Frc consts  --      0.1383                 0.1743                 0.2287
 IR Inten    --     16.9747                29.5430                 6.0179

                     13                     14                     15
                      A                      A                      A
 Frequencies --    353.4463               385.7279               406.6929
 Red. masses --      3.6760                 1.2786                 1.7274
 Frc consts  --      0.2706                 0.1121                 0.1683
 IR Inten    --      9.8536               146.8934                20.6671

                     16                     17                     18
                      A                      A                      A
 Frequencies --    415.5234               431.3148               458.8536
 Red. masses --      1.8745                 1.1927                 1.4429
 Frc consts  --      0.1907                 0.1307                 0.1790
 IR Inten    --     63.3299                17.9728               122.0783

                     19                     20                     21
                      A                      A                      A
 Frequencies --    508.2572               558.6628               579.4773
 Red. masses --      2.5003                 2.6101                 3.2134
 Frc consts  --      0.3806                 0.4800                 0.6357
 IR Inten    --      4.1705                37.4261                22.7460

                     22                     23                     24
                      A                      A                      A
 Frequencies --    618.9907               644.6872               797.0195
 Red. masses --      1.1793                 1.1083                 3.9698
 Frc consts  --      0.2662                 0.2714                 1.4858
 IR Inten    --    171.8757                24.2470                18.2052

                     25                     26                     27
                      A                      A                      A
 Frequencies --    801.4205               832.9310               840.3693
 Red. masses --      3.9629                 3.2932                 3.4441
 Frc consts  --      1.4996                 1.3461                 1.4331
 IR Inten    --     16.9229                12.2163                34.5447

                     28                     29                     30
                      A                      A                      A
 Frequencies --    968.1076               986.7773               987.8778
 Red. masses --      2.3812                 2.1683                 2.1171
 Frc consts  --      1.3149                 1.2440                 1.2173
 IR Inten    --     13.7657                 4.4025                10.6193

                     31                     32                     33
                      A                      A                      A
 Frequencies --    994.1745              1062.7361              1105.6073
 Red. masses --      2.2786                 2.6221                 3.4853
 Frc consts  --      1.3269                 1.7448                 2.5101
 IR Inten    --      8.7286                11.8098               227.3201

                     34                     35                     36
                      A                      A                      A
 Frequencies --   1113.0474              1119.2276              1140.2749
 Red. masses --      2.5451                 3.6151                 3.1367
 Frc consts  --      1.8577                 2.6681                 2.4030
 IR Inten    --    158.5722                87.7445                21.7065

                     37                     38                     39
                      A                      A                      A
 Frequencies --   1150.6002              1172.6122              1206.8828
 Red. masses --      2.4605                 2.9897                 1.1077
 Frc consts  --      1.9192                 2.4220                 0.9506
 IR Inten    --     43.7796                21.7979                60.3709

                     40                     41                     42
                      A                      A                      A
 Frequencies --   1242.1784              1249.5732              1259.5990
 Red. masses --      1.1166                 1.2025                 1.2344
 Frc consts  --      1.0151                 1.1063                 1.1539
 IR Inten    --     42.4432                19.7764                12.2320

                     43                     44                     45
                      A                      A                      A
 Frequencies --   1275.3313              1294.6431              1347.9941
 Red. masses --      1.2594                 1.4663                 1.2960
 Frc consts  --      1.2069                 1.4480                 1.3875
 IR Inten    --     35.3959                29.0626                18.4029

                     46                     47                     48
                      A                      A                      A
 Frequencies --   1369.0657              1382.2393              1394.0157
 Red. masses --      1.2878                 1.4847                 1.2991
 Frc consts  --      1.4221                 1.6713                 1.4874
 IR Inten    --      3.2981                 6.0374                11.7441

                     49                     50                     51
                      A                      A                      A
 Frequencies --   1394.5674              1406.1018              1428.8733
 Red. masses --      1.3284                 1.3033                 1.3742
 Frc consts  --      1.5222                 1.5182                 1.6530
 IR Inten    --      2.9108                 7.7641                56.5125

                     52                     53                     54
                      A                      A                      A
 Frequencies --   1432.7861              1441.9838              1454.9674
 Red. masses --      1.2920                 1.3650                 1.4791
 Frc consts  --      1.5627                 1.6723                 1.8449
 IR Inten    --     27.9216                30.2145                19.3692

                     55                     56                     57
                      A                      A                      A
 Frequencies --   1459.2472              1468.2549              1513.7704
 Red. masses --      1.3402                 1.3005                 1.0834
 Frc consts  --      1.6815                 1.6518                 1.4627
 IR Inten    --    102.0747                24.9231                 6.9081

                     58                     59                     60
                      A                      A                      A
 Frequencies --   1522.3733              3022.6476              3028.7805
 Red. masses --      1.0809                 1.0716                 1.0808
 Frc consts  --      1.4760                 5.7682                 5.8415
 IR Inten    --      8.0087                32.5843                19.4529

                     61                     62                     63
                      A                      A                      A
 Frequencies --   3045.3548              3052.6136              3066.3905
 Red. masses --      1.0794                 1.0706                 1.0853
 Frc consts  --      5.8983                 5.8778                 6.0123
 IR Inten    --     26.2026                43.4451                63.7599

                     64                     65                     66
                      A                      A                      A
 Frequencies --   3082.4489              3116.1187              3118.0471
 Red. masses --      1.0853                 1.1004                 1.0953
 Frc consts  --      6.0757                 6.2953                 6.2738
 IR Inten    --     23.9910                22.6840                28.2305

                     67                     68                     69
                      A                      A                      A
 Frequencies --   3820.2887              3834.0200              3848.2298
 Red. masses --      1.0655                 1.0658                 1.0658
 Frc consts  --      9.1625                 9.2303                 9.2995
 IR Inten    --    120.3693                63.3588                94.0788

                     70                     71                     72
                      A                      A                      A
 Frequencies --   3850.6477              3883.0658              3890.7605
 Red. masses --      1.0653                 1.0657                 1.0656
 Frc consts  --      9.3061                 9.4675                 9.5046
 IR Inten    --     63.9097                63.5405                55.5454

 - Thermochemistry -
 -------------------
 Temperature   298.150 Kelvin.  Pressure   1.00000 Atm.
 Atom     1 has atomic number  6 and mass  12.00000

 Molecular mass:   182.07904 amu.
 Principal axes and moments of inertia in atomic units:
                           1         2         3
     Eigenvalues --  1156.651843473.508003585.91068
           X            0.99999  -0.00274  -0.00462
           Y            0.00235   0.99672  -0.08085
           Z            0.00483   0.08084   0.99672
 This molecule is an asymmetric top.
 Rotational symmetry number  1.
 Warning -- assumption of classical behavior for rotation
           may cause significant error
 Rotational temperatures (Kelvin)      0.07488     0.02494     0.02415
 Rotational constants (GHZ):           1.56031     0.51957     0.50329
 Zero-point vibrational energy     585930.9 (Joules/Mol)
                                  140.04085 (Kcal/Mol)
 Warning -- explicit consideration of  22 degrees of freedom as
           vibrations may cause significant error
 Vibrational temperatures:     49.88    81.88   124.78   196.09   236.10
          (Kelvin)            266.20   322.46   354.09   372.52   415.18
                              436.83   484.43   508.53   554.98   585.14
                              597.85   620.57   660.19   731.27   803.79
                              833.74   890.59   927.56  1146.73  1153.07
                             1198.40  1209.10  1392.89  1419.75  1421.34
                             1430.40  1529.04  1590.72  1601.43  1610.32
                             1640.60  1655.46  1687.13  1736.44  1787.22
                             1797.86  1812.28  1834.92  1862.70  1939.46
                             1969.78  1988.73  2005.68  2006.47  2023.07
                             2055.83  2061.46  2074.69  2093.37  2099.53
                             2112.49  2177.98  2190.36  4348.92  4357.74
                             4381.59  4392.03  4411.85  4434.96  4483.40
                             4486.17  5496.54  5516.30  5536.74  5540.22
                             5586.87  5597.94

 Zero-point correction=                           0.223169 (Hartree/Particle)
 Thermal correction to Energy=                    0.236500
 Thermal correction to Enthalpy=                  0.237444
 Thermal correction to Gibbs Free Energy=         0.183486
 Sum of electronic and zero-point Energies=           -688.257732
 Sum of electronic and thermal Energies=              -688.244401
 Sum of electronic and thermal Enthalpies=            -688.243457
 Sum of electronic and thermal Free Energies=         -688.297415

                     E (Thermal)             CV                S
                      KCal/Mol        Cal/Mol-Kelvin    Cal/Mol-Kelvin
 Total                  148.406             50.181            113.564
 Electronic               0.000              0.000              0.000
 Translational            0.889              2.981             41.504
 Rotational               0.889              2.981             31.044
 Vibrational            146.628             44.219             41.016
 Vibration     1          0.594              1.983              5.543
 Vibration     2          0.596              1.975              4.562
 Vibration     3          0.601              1.958              3.733
 Vibration     4          0.614              1.917              2.855
 Vibration     5          0.623              1.887              2.502
 Vibration     6          0.631              1.860              2.277
 Vibration     7          0.649              1.804              1.926
 Vibration     8          0.661              1.769              1.758
 Vibration     9          0.668              1.748              1.669
 Vibration    10          0.685              1.695              1.482
 Vibration    11          0.695              1.667              1.397
 Vibration    12          0.717              1.602              1.228
 Vibration    13          0.730              1.568              1.151
 Vibration    14          0.754              1.501              1.017
 Vibration    15          0.771              1.456              0.938
 Vibration    16          0.779              1.437              0.907
 Vibration    17          0.792              1.402              0.854
 Vibration    18          0.817              1.341              0.769
 Vibration    19          0.863              1.232              0.638
 Vibration    20          0.914              1.121              0.527
 Vibration    21          0.936              1.076              0.486
 Vibration    22          0.979              0.992              0.418

 Optimization completed.
    -- Stationary point found.
 Normal termination of Gaussian 16 at Wed Oct 11 15:27:36 2023.
