 Gaussian 16, Revision C.01,
 Gaussian 16:  ES64L-G16RevC.01  3-Jul-2019

 ---------------------------------------------
 # opt freq wb97xd/Def2TZVPP geom=connectivity
 ---------------------------------------------

 -------------------
 Title Card Required
 -------------------
 Symbolic Z-matrix:
 Charge =  0 Multiplicity = 1

 SCF Done:  E(RwB97XD) =  -688.472655224     A.U. after   14 cycles
 SCF Done:  E(RwB97XD) =  -688.476490843     A.U. after   12 cycles
 SCF Done:  E(RwB97XD) =  -688.478369383     A.U. after   12 cycles
 SCF Done:  E(RwB97XD) =  -688.479204565     A.U. after   12 cycles
 SCF Done:  E(RwB97XD) =  -688.481418443     A.U. after   12 cycles
 SCF Done:  E(RwB97XD) =  -688.482881982     A.U. after   12 cycles
 SCF Done:  E(RwB97XD) =  -688.483131839     A.U. after   11 cycles
 SCF Done:  E(RwB97XD) =  -688.483205451     A.U. after   10 cycles
 SCF Done:  E(RwB97XD) =  -688.483232136     A.U. after   11 cycles
 SCF Done:  E(RwB97XD) =  -688.483248697     A.U. after   10 cycles
 SCF Done:  E(RwB97XD) =  -688.483261268     A.U. after   10 cycles
 SCF Done:  E(RwB97XD) =  -688.483269511     A.U. after   10 cycles
 SCF Done:  E(RwB97XD) =  -688.483272546     A.U. after    8 cycles
 SCF Done:  E(RwB97XD) =  -688.483273223     A.U. after    7 cycles
 SCF Done:  E(RwB97XD) =  -688.483273371     A.U. after    7 cycles
 Optimization completed.
    -- Stationary point found.
 Normal termination of Gaussian 16 at Wed Oct 11 14:50:16 2023.

 ----------------------------------------------------------------------
 #N Geom=AllCheck Guess=TCheck SCRF=Check GenChk RwB97XD/def2TZVPP Freq
 ----------------------------------------------------------------------

 Structure from the checkpoint file:  "MannitolConformerOpt_29.chk"
 -------------------
 Title Card Required
 -------------------
 Charge =  0 Multiplicity = 1

                         Standard orientation:
 ---------------------------------------------------------------------
 Center     Atomic      Atomic             Coordinates (Angstroms)
 Number     Number       Type             X           Y           Z
 ---------------------------------------------------------------------
      1          6           0       -0.853183    0.589473   -0.134278
      2          6           0        0.592751    0.855845    0.300041
      3          6           0       -1.495420   -0.677313    0.469229
      4          6           0        1.614078   -0.144509   -0.228919
      5          1           0        0.630220    0.835160    1.398913
      6          1           0       -0.868930    0.476374   -1.223842
      7          6           0       -3.008572   -0.565222    0.516646
      8          1           0       -1.138660   -0.819909    1.496875
      9          6           0        3.033811    0.305578    0.067454
     10          1           0        1.496533   -0.235082   -1.315284
     11          1           0       -3.414817   -1.536688    0.810968
     12          1           0       -3.310784    0.172309    1.257417
     13          1           0        3.131077    0.516404    1.137938
     14          1           0        3.263673    1.208535   -0.497458
     15          8           0       -3.554002   -0.138925   -0.721012
     16          1           0       -3.278311   -0.768570   -1.388870
     17          8           0       -1.195099   -1.806894   -0.322021
     18          1           0       -0.252331   -1.983778   -0.209390
     19          8           0       -1.556801    1.766636    0.235395
     20          1           0       -2.396798    1.749876   -0.228838
     21          8           0        0.995144    2.117869   -0.181464
     22          1           0        0.226277    2.688559   -0.098752
     23          8           0        1.394629   -1.406172    0.383989
     24          1           0        2.206653   -1.907149    0.265866
     25          8           0        3.871399   -0.778499   -0.311373
     26          1           0        4.763247   -0.611266   -0.014686
 ---------------------------------------------------------------------

 SCF Done:  E(RwB97XD) =  -688.483273371     A.U. after    1 cycles

 The electronic state is 1-A.
 Alpha  occ. eigenvalues --  -19.27138 -19.26968 -19.25901 -19.25554 -19.24817
 Alpha  occ. eigenvalues --  -19.23723 -10.34634 -10.34110 -10.33867 -10.33705
 Alpha  occ. eigenvalues --  -10.33146 -10.32657  -1.16636  -1.15411  -1.13746
 Alpha  occ. eigenvalues --   -1.13439  -1.11780  -1.11323  -0.88677  -0.85217
 Alpha  occ. eigenvalues --   -0.81473  -0.74899  -0.70148  -0.68413  -0.64661
 Alpha  occ. eigenvalues --   -0.64173  -0.62307  -0.60939  -0.59185  -0.57676
 Alpha  occ. eigenvalues --   -0.56649  -0.54948  -0.52707  -0.51751  -0.50866
 Alpha  occ. eigenvalues --   -0.50183  -0.48704  -0.47818  -0.46128  -0.45015
 Alpha  occ. eigenvalues --   -0.43469  -0.42072  -0.41346  -0.39474  -0.38513
 Alpha  occ. eigenvalues --   -0.37998  -0.36577  -0.36263  -0.34466
 Alpha virt. eigenvalues --    0.09131   0.10906   0.12083   0.12984   0.14349
 Alpha virt. eigenvalues --    0.15326   0.16584   0.17698   0.18317   0.19101
 Alpha virt. eigenvalues --    0.19577   0.20653   0.21963   0.22148   0.22217

 Mulliken charges:
               1
     1  C    0.052304
     2  C    0.140660
     3  C    0.128658
     4  C    0.143024
     5  H    0.059325
     6  H    0.072285
     7  C    0.034015
     8  H    0.056871
     9  C   -0.029446
    10  H    0.069474
    11  H    0.091702
    12  H    0.074681
    13  H    0.087730
    14  H    0.103210
    15  O   -0.374296
    16  H    0.187730
    17  O   -0.402192
    18  H    0.208139
    19  O   -0.382519
    20  H    0.204598
    21  O   -0.369706
    22  H    0.194574
    23  O   -0.370598
    24  H    0.192344
    25  O   -0.345873
    26  H    0.173305
 Sum of Mulliken charges =  -0.00000

 Dipole moment (field-independent basis, Debye):
    X=              2.5010    Y=             -0.1942    Z=              0.6719  Tot=              2.5969
 Quadrupole moment (field-independent basis, Debye-Ang):
   XX=            -62.6075   YY=            -75.6179   ZZ=            -71.0228
   XY=             -1.8474   XZ=              2.5448   YZ=             -0.8345

  Exact polarizability:     113.029       0.095      93.255      -0.566      -0.358      81.890
 Approx polarizability:     105.276      -2.015     104.114       0.310       0.616      99.599

                      1                      2                      3
                      A                      A                      A
 Frequencies --     48.6474                66.2630               106.7302
 Red. masses --      4.8171                 5.1772                 5.8010
 Frc consts  --      0.0067                 0.0134                 0.0389
 IR Inten    --      1.4415                 0.0022                 3.3160

                      4                      5                      6
                      A                      A                      A
 Frequencies --    111.9489               141.2096               167.0460
 Red. masses --      5.5226                 3.1750                 5.0367
 Frc consts  --      0.0408                 0.0373                 0.0828
 IR Inten    --     10.3402                 2.6842                 4.2831

                      7                      8                      9
                      A                      A                      A
 Frequencies --    212.8566               234.3321               240.2654
 Red. masses --      3.5550                 2.9266                 1.4470
 Frc consts  --      0.0949                 0.0947                 0.0492
 IR Inten    --      1.3412                22.9473                84.4237

                     10                     11                     12
                      A                      A                      A
 Frequencies --    292.4274               332.9756               337.0213
 Red. masses --      4.6503                 2.9553                 4.7582
 Frc consts  --      0.2343                 0.1931                 0.3184
 IR Inten    --      0.9586                 1.9034                 5.7264

                     13                     14                     15
                      A                      A                      A
 Frequencies --    362.5319               374.2745               444.9231
 Red. masses --      5.9325                 2.7506                 2.1378
 Frc consts  --      0.4594                 0.2270                 0.2493
 IR Inten    --      8.7883                 4.2804                74.0601

                     16                     17                     18
                      A                      A                      A
 Frequencies --    447.4344               478.4564               507.8609
 Red. masses --      1.8799                 2.2102                 1.4093
 Frc consts  --      0.2217                 0.2981                 0.2142
 IR Inten    --     53.0440                 4.0543               120.1433

                     19                     20                     21
                      A                      A                      A
 Frequencies --    510.8713               524.4139               575.8853
 Red. masses --      2.0181                 1.3778                 2.4533
 Frc consts  --      0.3103                 0.2232                 0.4794
 IR Inten    --      4.8508                85.8689                67.8017

                     22                     23                     24
                      A                      A                      A
 Frequencies --    593.7249               634.4767               677.7121
 Red. masses --      1.6136                 2.4183                 1.1411
 Frc consts  --      0.3351                 0.5736                 0.3088
 IR Inten    --     65.9625                58.9246                99.9952

                     25                     26                     27
                      A                      A                      A
 Frequencies --    720.3974               888.3917               911.7893
 Red. masses --      2.8475                 2.8668                 2.3348
 Frc consts  --      0.8707                 1.3331                 1.1436
 IR Inten    --      1.9716                13.6239                22.3422

                     28                     29                     30
                      A                      A                      A
 Frequencies --    958.0744              1010.1367              1054.2159
 Red. masses --      2.0252                 2.8640                 3.4628
 Frc consts  --      1.0952                 1.7218                 2.2675
 IR Inten    --     22.7147                16.9770                18.2804

                     31                     32                     33
                      A                      A                      A
 Frequencies --   1071.2451              1091.1751              1099.1843
 Red. masses --      2.5106                 2.8888                 3.4888
 Frc consts  --      1.6975                 2.0266                 2.4835
 IR Inten    --     15.8449                53.9968                13.6529

                     34                     35                     36
                      A                      A                      A
 Frequencies --   1107.7904              1123.1590              1138.0658
 Red. masses --      2.9279                 3.2938                 3.6996
 Frc consts  --      2.1170                 2.4481                 2.8232
 IR Inten    --    152.7447               164.6259                50.5471

                     37                     38                     39
                      A                      A                      A
 Frequencies --   1152.0307              1158.4441              1219.7005
 Red. masses --      2.8155                 3.0700                 1.1747
 Frc consts  --      2.2016                 2.4274                 1.0296
 IR Inten    --     23.7985                17.9774                46.8266

                     40                     41                     42
                      A                      A                      A
 Frequencies --   1223.2320              1250.7164              1280.9372
 Red. masses --      1.1467                 1.2119                 1.2553
 Frc consts  --      1.0109                 1.1169                 1.2136
 IR Inten    --     12.8490                49.4154                 2.0959

                     43                     44                     45
                      A                      A                      A
 Frequencies --   1291.4085              1296.7145              1309.4776
 Red. masses --      1.2089                 1.1520                 1.1754
 Frc consts  --      1.1879                 1.1413                 1.1875
 IR Inten    --      4.4024                38.2401                52.8169

                     46                     47                     48
                      A                      A                      A
 Frequencies --   1320.9361              1375.2376              1377.7541
 Red. masses --      1.1328                 1.2042                 1.2523
 Frc consts  --      1.1646                 1.3419                 1.4006
 IR Inten    --      9.9708                29.3768                 8.7005

                     49                     50                     51
                      A                      A                      A
 Frequencies --   1382.3463              1396.0932              1414.4338
 Red. masses --      1.3455                 1.2736                 1.3419
 Frc consts  --      1.5148                 1.4625                 1.5818
 IR Inten    --    123.1447                18.6230                 2.6152

                     52                     53                     54
                      A                      A                      A
 Frequencies --   1426.9966              1437.3719              1453.8955
 Red. masses --      1.2475                 1.3986                 1.4652
 Frc consts  --      1.4967                 1.7025                 1.8248
 IR Inten    --     60.7252                30.6450                 1.8024

                     55                     56                     57
                      A                      A                      A
 Frequencies --   1476.8045              1494.2569              1511.6089
 Red. masses --      1.5723                 1.9302                 1.0769
 Frc consts  --      2.0203                 2.5392                 1.4497
 IR Inten    --     32.5146                 1.1241                 6.8923

                     58                     59                     60
                      A                      A                      A
 Frequencies --   1519.5196              2989.6741              3019.4892
 Red. masses --      1.0879                 1.0818                 1.0825
 Frc consts  --      1.4799                 5.6971                 5.8148
 IR Inten    --      6.2504                18.4167                16.8415

                     61                     62                     63
                      A                      A                      A
 Frequencies --   3025.0265              3036.8030              3042.4722
 Red. masses --      1.0790                 1.0727                 1.0831
 Frc consts  --      5.8177                 5.8284                 5.9069
 IR Inten    --      7.4681                12.0380                89.9777

                     64                     65                     66
                      A                      A                      A
 Frequencies --   3059.3449              3122.2152              3138.2655
 Red. masses --      1.0685                 1.0997                 1.0991
 Frc consts  --      5.8920                 6.3160                 6.3779
 IR Inten    --     52.3945                19.0494                15.7655

                     67                     68                     69
                      A                      A                      A
 Frequencies --   3741.1770              3843.8730              3845.3142
 Red. masses --      1.0658                 1.0649                 1.0653
 Frc consts  --      8.7887                 9.2704                 9.2809
 IR Inten    --    414.1420               164.0191                34.5741

                     70                     71                     72
                      A                      A                      A
 Frequencies --   3872.4587              3894.1953              3948.7120
 Red. masses --      1.0659                 1.0659                 1.0669
 Frc consts  --      9.4177                 9.5239                 9.8009
 IR Inten    --     80.8434                40.9430                61.6056

 - Thermochemistry -
 -------------------
 Temperature   298.150 Kelvin.  Pressure   1.00000 Atm.
 Atom     1 has atomic number  6 and mass  12.00000

 Molecular mass:   182.07904 amu.
 Principal axes and moments of inertia in atomic units:
                           1         2         3
     Eigenvalues --  1073.047923462.561774274.77072
           X            0.99999   0.00478  -0.00118
           Y           -0.00479   0.99998  -0.00463
           Z            0.00116   0.00463   0.99999
 This molecule is an asymmetric top.
 Rotational symmetry number  1.
 Warning -- assumption of classical behavior for rotation
           may cause significant error
 Rotational temperatures (Kelvin)      0.08072     0.02501     0.02026
 Rotational constants (GHZ):           1.68188     0.52122     0.42218
 Zero-point vibrational energy     585852.3 (Joules/Mol)
                                  140.02205 (Kcal/Mol)
 Warning -- explicit consideration of  22 degrees of freedom as
           vibrations may cause significant error
 Vibrational temperatures:     69.99    95.34   153.56   161.07   203.17
          (Kelvin)            240.34   306.25   337.15   345.69   420.74
                              479.08   484.90   521.60   538.50   640.15
                              643.76   688.39   730.70   735.03   754.51
                              828.57   854.24   912.87   975.08  1036.49
                             1278.20  1311.86  1378.46  1453.36  1516.78
                             1541.28  1569.96  1581.48  1593.86  1615.98
                             1637.42  1657.52  1666.74  1754.88  1759.96
                             1799.50  1842.98  1858.05  1865.68  1884.05
                             1900.53  1978.66  1982.28  1988.89  2008.67
                             2035.05  2053.13  2068.06  2091.83  2124.79
                             2149.90  2174.87  2186.25  4301.47  4344.37
                             4352.34  4369.28  4377.44  4401.71  4492.17
                             4515.26  5382.72  5530.48  5532.55  5571.60
                             5602.88  5681.32

 Zero-point correction=                           0.223139 (Hartree/Particle)
 Thermal correction to Energy=                    0.236440
 Thermal correction to Enthalpy=                  0.237384
 Thermal correction to Gibbs Free Energy=         0.183701
 Sum of electronic and zero-point Energies=           -688.260134
 Sum of electronic and thermal Energies=              -688.246833
 Sum of electronic and thermal Enthalpies=            -688.245889
 Sum of electronic and thermal Free Energies=         -688.299572

                     E (Thermal)             CV                S
                      KCal/Mol        Cal/Mol-Kelvin    Cal/Mol-Kelvin
 Total                  148.368             50.061            112.986
 Electronic               0.000              0.000              0.000
 Translational            0.889              2.981             41.504
 Rotational               0.889              2.981             31.141
 Vibrational            146.591             44.099             40.340
 Vibration     1          0.595              1.978              4.872
 Vibration     2          0.598              1.970              4.261
 Vibration     3          0.606              1.944              3.328
 Vibration     4          0.607              1.940              3.235
 Vibration     5          0.615              1.912              2.787
 Vibration     6          0.624              1.883              2.468
 Vibration     7          0.644              1.821              2.019
 Vibration     8          0.654              1.788              1.846
 Vibration     9          0.657              1.779              1.801
 Vibration    10          0.688              1.688              1.460
 Vibration    11          0.715              1.610              1.246
 Vibration    12          0.718              1.602              1.226
 Vibration    13          0.736              1.549              1.111
 Vibration    14          0.745              1.525              1.062
 Vibration    15          0.804              1.372              0.811
 Vibration    16          0.807              1.367              0.804
 Vibration    17          0.835              1.298              0.714
 Vibration    18          0.863              1.233              0.639
 Vibration    19          0.866              1.226              0.631
 Vibration    20          0.879              1.196              0.600
 Vibration    21          0.932              1.083              0.493
 Vibration    22          0.951              1.045              0.461

 Optimization completed.
    -- Stationary point found.
 Normal termination of Gaussian 16 at Wed Oct 11 15:30:12 2023.
