 Gaussian 16, Revision C.01,
 Gaussian 16:  ES64L-G16RevC.01  3-Jul-2019

 ---------------------------------------------
 # opt freq wb97xd/def2tzvpp geom=connectivity
 ---------------------------------------------

 --------------------------------
 Mannitol Conformer Optimziations
 --------------------------------
 Symbolic Z-matrix:
 Charge =  0 Multiplicity = 1

 SCF Done:  E(RwB97XD) =  -688.467626280     A.U. after   13 cycles
 SCF Done:  E(RwB97XD) =  -688.477220402     A.U. after   12 cycles
 SCF Done:  E(RwB97XD) =  -688.477469137     A.U. after   11 cycles
 SCF Done:  E(RwB97XD) =  -688.477681327     A.U. after   12 cycles
 SCF Done:  E(RwB97XD) =  -688.478552112     A.U. after   11 cycles
 SCF Done:  E(RwB97XD) =  -688.478662382     A.U. after   12 cycles
 SCF Done:  E(RwB97XD) =  -688.478778348     A.U. after   10 cycles
 SCF Done:  E(RwB97XD) =  -688.478816050     A.U. after   10 cycles
 SCF Done:  E(RwB97XD) =  -688.478845857     A.U. after   10 cycles
 SCF Done:  E(RwB97XD) =  -688.478867402     A.U. after   10 cycles
 SCF Done:  E(RwB97XD) =  -688.480748027     A.U. after   12 cycles
 SCF Done:  E(RwB97XD) =  -688.481924500     A.U. after   11 cycles
 SCF Done:  E(RwB97XD) =  -688.481963954     A.U. after   10 cycles
 SCF Done:  E(RwB97XD) =  -688.481978199     A.U. after   10 cycles
 SCF Done:  E(RwB97XD) =  -688.481986647     A.U. after   10 cycles
 SCF Done:  E(RwB97XD) =  -688.481991780     A.U. after    8 cycles
 SCF Done:  E(RwB97XD) =  -688.481994790     A.U. after    8 cycles
 SCF Done:  E(RwB97XD) =  -688.481995333     A.U. after    8 cycles
 SCF Done:  E(RwB97XD) =  -688.481995446     A.U. after    6 cycles
 Optimization completed.
    -- Stationary point found.
 Normal termination of Gaussian 16 at Wed Sep 27 12:53:48 2023.

 ----------------------------------------------------------------------
 #N Geom=AllCheck Guess=TCheck SCRF=Check GenChk RwB97XD/def2TZVPP Freq
 ----------------------------------------------------------------------

 Structure from the checkpoint file:  "MannitolConformerOpt_13.chk"
 --------------------------------
 Mannitol Conformer Optimziations
 --------------------------------
 Charge =  0 Multiplicity = 1

                         Standard orientation:
 ---------------------------------------------------------------------
 Center     Atomic      Atomic             Coordinates (Angstroms)
 Number     Number       Type             X           Y           Z
 ---------------------------------------------------------------------
      1          6           0       -0.349046    0.503264   -0.590031
      2          6           0        0.636435   -0.653986   -0.418617
      3          6           0       -1.810486    0.062240   -0.661638
      4          6           0        2.085068   -0.309268   -0.808811
      5          1           0        0.313821   -1.447075   -1.098310
      6          1           0       -0.126742    0.982459   -1.552704
      7          6           0       -2.293558   -0.758020    0.523657
      8          1           0       -1.948972   -0.526901   -1.576147
      9          6           0        2.654783    0.913651   -0.088410
     10          1           0        2.108846   -0.094220   -1.881016
     11          1           0       -2.029978   -0.253173    1.456418
     12          1           0       -1.825529   -1.742990    0.519356
     13          1           0        2.282427    1.824639   -0.565649
     14          1           0        3.738534    0.888230   -0.199843
     15          8           0       -3.704759   -0.851811    0.373545
     16          1           0       -4.082455   -1.229025    1.165124
     17          8           0       -2.557873    1.262950   -0.747693
     18          1           0       -3.462555    1.041243   -0.512143
     19          8           0       -0.191416    1.452883    0.449402
     20          1           0       -0.969520    2.016847    0.413387
     21          8           0        0.605815   -1.225894    0.874160
     22          1           0        1.061270   -0.611849    1.461391
     23          8           0        2.889743   -1.451486   -0.620234
     24          1           0        2.607396   -1.866321    0.198307
     25          8           0        2.366091    0.944630    1.302227
     26          1           0        1.533477    1.420673    1.383681
 ---------------------------------------------------------------------

 SCF Done:  E(RwB97XD) =  -688.481995446     A.U. after    1 cycles

 The electronic state is 1-A.
 Alpha  occ. eigenvalues --  -19.27125 -19.27091 -19.26452 -19.25681 -19.24922
 Alpha  occ. eigenvalues --  -19.24193 -10.35235 -10.34892 -10.34754 -10.33855
 Alpha  occ. eigenvalues --  -10.33601 -10.32593  -1.17265  -1.15645  -1.14373
 Alpha  occ. eigenvalues --   -1.12642  -1.12329  -1.11395  -0.89757  -0.85610
 Alpha  occ. eigenvalues --   -0.80828  -0.76126  -0.71016  -0.69408  -0.64759
 Alpha  occ. eigenvalues --   -0.62420  -0.61996  -0.61525  -0.60322  -0.58236
 Alpha  occ. eigenvalues --   -0.55910  -0.55427  -0.53835  -0.52560  -0.51617
 Alpha  occ. eigenvalues --   -0.50219  -0.50007  -0.47062  -0.45828  -0.45451
 Alpha  occ. eigenvalues --   -0.44295  -0.42133  -0.41444  -0.39557  -0.38722
 Alpha  occ. eigenvalues --   -0.38206  -0.37961  -0.37032  -0.33939
 Alpha virt. eigenvalues --    0.09042   0.09967   0.11808   0.13476   0.13951
 Alpha virt. eigenvalues --    0.15730   0.16743   0.17425   0.18030   0.18551
 Alpha virt. eigenvalues --    0.19277   0.19891   0.20461   0.21382   0.22047

 Mulliken charges:
               1
     1  C    0.070524
     2  C    0.154891
     3  C    0.126145
     4  C    0.132070
     5  H    0.092586
     6  H    0.088888
     7  C   -0.006606
     8  H    0.065603
     9  C    0.033913
    10  H    0.048462
    11  H    0.085712
    12  H    0.091131
    13  H    0.069387
    14  H    0.089835
    15  O   -0.347755
    16  H    0.174166
    17  O   -0.388989
    18  H    0.200363
    19  O   -0.392862
    20  H    0.183988
    21  O   -0.404113
    22  H    0.193554
    23  O   -0.360513
    24  H    0.184210
    25  O   -0.386635
    26  H    0.202047
 Sum of Mulliken charges =  -0.00000

 Dipole moment (field-independent basis, Debye):
    X=             -3.1850    Y=              0.5626    Z=              0.3844  Tot=              3.2570
 Quadrupole moment (field-independent basis, Debye-Ang):
   XX=            -75.8973   YY=            -72.8761   ZZ=            -70.4302
   XY=              4.9961   XZ=             -7.5364   YZ=             -2.4163

  Exact polarizability:     109.516       0.703      89.311      -2.084      -1.251      86.291
 Approx polarizability:     104.763      -1.451     101.319      -1.020      -1.041     103.127

                      1                      2                      3
                      A                      A                      A
 Frequencies --     49.5985                87.8251               114.1035
 Red. masses --      5.3994                 5.1630                 4.3415
 Frc consts  --      0.0078                 0.0235                 0.0333
 IR Inten    --      1.7358                 2.7144                 7.4999

                      4                      5                      6
                      A                      A                      A
 Frequencies --    159.0420               163.7774               173.6168
 Red. masses --      4.7819                 4.1873                 4.0983
 Frc consts  --      0.0713                 0.0662                 0.0728
 IR Inten    --      6.7208                 3.2712                 5.5654

                      7                      8                      9
                      A                      A                      A
 Frequencies --    203.9548               250.9481               258.6724
 Red. masses --      3.7437                 3.6651                 1.3433
 Frc consts  --      0.0918                 0.1360                 0.0530
 IR Inten    --      4.7694                12.6235                91.4842

                     10                     11                     12
                      A                      A                      A
 Frequencies --    275.3642               294.1134               311.1242
 Red. masses --      4.0380                 4.0309                 3.3256
 Frc consts  --      0.1804                 0.2054                 0.1897
 IR Inten    --      9.2130                11.1182                20.7794

                     13                     14                     15
                      A                      A                      A
 Frequencies --    341.1356               355.5545               390.2725
 Red. masses --      4.0340                 5.5138                 2.0460
 Frc consts  --      0.2766                 0.4107                 0.1836
 IR Inten    --      3.2687                 5.5236                33.4475

                     16                     17                     18
                      A                      A                      A
 Frequencies --    400.5782               485.2570               499.3843
 Red. masses --      1.9927                 1.1170                 2.2744
 Frc consts  --      0.1884                 0.1550                 0.3342
 IR Inten    --     31.3025                75.9874                20.3937

                     19                     20                     21
                      A                      A                      A
 Frequencies --    519.3658               539.5302               555.5524
 Red. masses --      1.3394                 1.1239                 2.4547
 Frc consts  --      0.2129                 0.1928                 0.4464
 IR Inten    --     74.2715                67.6894                45.0357

                     22                     23                     24
                      A                      A                      A
 Frequencies --    690.7113               713.0292               745.3095
 Red. masses --      1.1591                 3.4480                 4.6007
 Frc consts  --      0.3258                 1.0328                 1.5057
 IR Inten    --    264.9691                39.6531                19.3025

                     25                     26                     27
                      A                      A                      A
 Frequencies --    814.8977               841.3862               863.8282
 Red. masses --      3.8257                 3.7959                 3.2533
 Frc consts  --      1.4968                 1.5833                 1.4303
 IR Inten    --     31.7513                 5.3264                22.0845

                     28                     29                     30
                      A                      A                      A
 Frequencies --    912.2208               947.8530               986.7427
 Red. masses --      2.8335                 1.8989                 2.2847
 Frc consts  --      1.3892                 1.0052                 1.3106
 IR Inten    --     19.0377                 6.2226                21.7451

                     31                     32                     33
                      A                      A                      A
 Frequencies --   1029.5208              1075.6852              1100.6778
 Red. masses --      2.0548                 3.6342                 3.4187
 Frc consts  --      1.2832                 2.4776                 2.4402
 IR Inten    --     35.4730                22.2374               125.0036

                     34                     35                     36
                      A                      A                      A
 Frequencies --   1103.8175              1131.8382              1138.5024
 Red. masses --      3.0488                 2.8896                 2.6088
 Frc consts  --      2.1886                 2.1810                 1.9923
 IR Inten    --     35.3902               112.4253                35.6109

                     37                     38                     39
                      A                      A                      A
 Frequencies --   1146.3334              1178.1986              1222.0141
 Red. masses --      2.8589                 3.0196                 1.0697
 Frc consts  --      2.2135                 2.4697                 0.9412
 IR Inten    --     98.0778                69.3920                19.8780

                     40                     41                     42
                      A                      A                      A
 Frequencies --   1231.7414              1262.7651              1273.4641
 Red. masses --      1.2140                 1.1816                 1.1000
 Frc consts  --      1.0852                 1.1101                 1.0510
 IR Inten    --     69.0756                 7.1968                31.1706

                     43                     44                     45
                      A                      A                      A
 Frequencies --   1284.4853              1303.7402              1326.2886
 Red. masses --      1.1772                 1.2380                 1.3655
 Frc consts  --      1.1444                 1.2398                 1.4152
 IR Inten    --      6.7146                26.5450                40.1851

                     46                     47                     48
                      A                      A                      A
 Frequencies --   1345.5018              1386.7403              1389.9476
 Red. masses --      1.3121                 1.5140                 1.2514
 Frc consts  --      1.3995                 1.7154                 1.4244
 IR Inten    --     14.8079                 4.8886                 8.4896

                     49                     50                     51
                      A                      A                      A
 Frequencies --   1404.7326              1414.9407              1424.0372
 Red. masses --      1.3211                 1.2368                 1.3841
 Frc consts  --      1.5359                 1.4589                 1.6537
 IR Inten    --      2.6728                15.1295                39.5789

                     52                     53                     54
                      A                      A                      A
 Frequencies --   1434.5861              1439.7939              1457.5253
 Red. masses --      1.2101                 1.3023                 1.5860
 Frc consts  --      1.4673                 1.5906                 1.9851
 IR Inten    --     17.7657                30.1523                37.8587

                     55                     56                     57
                      A                      A                      A
 Frequencies --   1466.5794              1479.9002              1503.6245
 Red. masses --      1.3440                 1.5899                 1.0789
 Frc consts  --      1.7032                 2.0515                 1.4371
 IR Inten    --     58.7029                21.6733                11.1743

                     58                     59                     60
                      A                      A                      A
 Frequencies --   1516.9890              3005.3859              3026.5247
 Red. masses --      1.0911                 1.0827                 1.0847
 Frc consts  --      1.4794                 5.7618                 5.8540
 IR Inten    --      7.0047                18.2433                34.3863

                     61                     62                     63
                      A                      A                      A
 Frequencies --   3047.6664              3056.7073              3062.8007
 Red. masses --      1.0690                 1.0596                 1.0805
 Frc consts  --      5.8502                 5.8331                 5.9720
 IR Inten    --      8.5070                23.5966                37.2094

                     64                     65                     66
                      A                      A                      A
 Frequencies --   3074.6487              3117.2668              3121.6582
 Red. masses --      1.0852                 1.1059                 1.1027
 Frc consts  --      6.0443                 6.3316                 6.3312
 IR Inten    --     49.4182                23.3142                26.6193

                     67                     68                     69
                      A                      A                      A
 Frequencies --   3789.0407              3817.1160              3836.0599
 Red. masses --      1.0658                 1.0654                 1.0651
 Frc consts  --      9.0156                 9.1460                 9.2341
 IR Inten    --    105.6165               250.6150                65.0302

                     70                     71                     72
                      A                      A                      A
 Frequencies --   3857.4744              3862.6763              3947.0549
 Red. masses --      1.0653                 1.0652                 1.0669
 Frc consts  --      9.3398                 9.3638                 9.7927
 IR Inten    --     78.4068                54.3652                60.3661

 - Thermochemistry -
 -------------------
 Temperature   298.150 Kelvin.  Pressure   1.00000 Atm.
 Atom     1 has atomic number  6 and mass  12.00000

 Molecular mass:   182.07904 amu.
 Principal axes and moments of inertia in atomic units:
                           1         2         3
     Eigenvalues --  1047.766943484.856553811.30292
           X            0.99991   0.01077  -0.00810
           Y           -0.01093   0.99973  -0.02063
           Z            0.00788   0.02072   0.99975
 This molecule is an asymmetric top.
 Rotational symmetry number  1.
 Warning -- assumption of classical behavior for rotation
           may cause significant error
 Rotational temperatures (Kelvin)      0.08267     0.02485     0.02273
 Rotational constants (GHZ):           1.72246     0.51788     0.47352
 Zero-point vibrational energy     586414.2 (Joules/Mol)
                                  140.15636 (Kcal/Mol)
 Warning -- explicit consideration of  21 degrees of freedom as
           vibrations may cause significant error
 Vibrational temperatures:     71.36   126.36   164.17   228.83   235.64
          (Kelvin)            249.80   293.45   361.06   372.17   396.19
                              423.16   447.64   490.82   511.56   561.52
                              576.34   698.18   718.50   747.25   776.26
                              799.32   993.78  1025.89  1072.33  1172.46
                             1210.57  1242.86  1312.48  1363.75  1419.70
                             1481.25  1547.67  1583.63  1588.15  1628.46
                             1638.05  1649.32  1695.17  1758.21  1772.20
                             1816.84  1832.23  1848.09  1875.79  1908.23
                             1935.88  1995.21  1999.82  2021.10  2035.78
                             2048.87  2064.05  2071.54  2097.05  2110.08
                             2129.25  2163.38  2182.61  4324.08  4354.49
                             4384.91  4397.92  4406.69  4423.73  4485.05
                             4491.37  5451.58  5491.98  5519.23  5550.05
                             5557.53  5678.93

 Zero-point correction=                           0.223353 (Hartree/Particle)
 Thermal correction to Energy=                    0.236569
 Thermal correction to Enthalpy=                  0.237513
 Thermal correction to Gibbs Free Energy=         0.184490
 Sum of electronic and zero-point Energies=           -688.258642
 Sum of electronic and thermal Energies=              -688.245426
 Sum of electronic and thermal Enthalpies=            -688.244482
 Sum of electronic and thermal Free Energies=         -688.297506

                     E (Thermal)             CV                S
                      KCal/Mol        Cal/Mol-Kelvin    Cal/Mol-Kelvin
 Total                  148.449             50.054            111.598
 Electronic               0.000              0.000              0.000
 Translational            0.889              2.981             41.504
 Rotational               0.889              2.981             31.010
 Vibrational            146.672             44.092             39.083
 Vibration     1          0.595              1.978              4.833
 Vibration     2          0.601              1.958              3.708
 Vibration     3          0.607              1.938              3.198
 Vibration     4          0.621              1.892              2.561
 Vibration     5          0.623              1.887              2.506
 Vibration     6          0.627              1.875              2.396
 Vibration     7          0.640              1.834              2.097
 Vibration     8          0.663              1.761              1.724
 Vibration     9          0.667              1.748              1.671
 Vibration    10          0.677              1.719              1.562
 Vibration    11          0.689              1.685              1.450
 Vibration    12          0.700              1.653              1.356
 Vibration    13          0.721              1.593              1.207
 Vibration    14          0.731              1.564              1.141
 Vibration    15          0.758              1.491              0.999
 Vibration    16          0.766              1.469              0.961
 Vibration    17          0.841              1.283              0.696
 Vibration    18          0.855              1.251              0.660
 Vibration    19          0.874              1.207              0.611
 Vibration    20          0.895              1.163              0.566
 Vibration    21          0.911              1.128              0.533

                           ! Non-Optimized Parameters !
 Normal termination of Gaussian 16 at Wed Sep 27 13:31:36 2023.
