 Gaussian 16, Revision C.01,
 Gaussian 16:  ES64L-G16RevC.01  3-Jul-2019

 ---------------------------------------------
 # opt freq wb97xd/Def2TZVPP geom=connectivity
 ---------------------------------------------

 -------------------
 Title Card Required
 -------------------
 Symbolic Z-matrix:
 Charge =  0 Multiplicity = 1

 SCF Done:  E(RwB97XD) =  -688.464448642     A.U. after   14 cycles
 SCF Done:  E(RwB97XD) =  -688.474096092     A.U. after   12 cycles
 SCF Done:  E(RwB97XD) =  -688.471894632     A.U. after   12 cycles
 SCF Done:  E(RwB97XD) =  -688.474834543     A.U. after   11 cycles
 SCF Done:  E(RwB97XD) =  -688.475949436     A.U. after   12 cycles
 SCF Done:  E(RwB97XD) =  -688.476383059     A.U. after   11 cycles
 SCF Done:  E(RwB97XD) =  -688.476389527     A.U. after   11 cycles
 SCF Done:  E(RwB97XD) =  -688.476492678     A.U. after   11 cycles
 SCF Done:  E(RwB97XD) =  -688.476545029     A.U. after   10 cycles
 SCF Done:  E(RwB97XD) =  -688.476560228     A.U. after    9 cycles
 SCF Done:  E(RwB97XD) =  -688.476564063     A.U. after    8 cycles
 SCF Done:  E(RwB97XD) =  -688.476565936     A.U. after    8 cycles
 SCF Done:  E(RwB97XD) =  -688.476568640     A.U. after    8 cycles
 SCF Done:  E(RwB97XD) =  -688.476569630     A.U. after    8 cycles
 SCF Done:  E(RwB97XD) =  -688.476569840     A.U. after    7 cycles
 Optimization completed.
    -- Stationary point found.
 Normal termination of Gaussian 16 at Wed Oct 11 14:56:11 2023.

 ----------------------------------------------------------------------
 #N Geom=AllCheck Guess=TCheck SCRF=Check GenChk RwB97XD/def2TZVPP Freq
 ----------------------------------------------------------------------

 Structure from the checkpoint file:  "MannitolConformerOpt_31.chk"
 -------------------
 Title Card Required
 -------------------
 Charge =  0 Multiplicity = 1

                         Standard orientation:
 ---------------------------------------------------------------------
 Center     Atomic      Atomic             Coordinates (Angstroms)
 Number     Number       Type             X           Y           Z
 ---------------------------------------------------------------------
      1          6           0       -0.106184   -0.943741    0.334808
      2          6           0        0.982283   -0.504583   -0.655038
      3          6           0       -1.288926    0.009054    0.513881
      4          6           0        2.043842    0.448508   -0.090555
      5          1           0        0.525412   -0.040352   -1.533351
      6          1           0        0.353489   -1.090197    1.318239
      7          6           0       -1.986835    0.388587   -0.781282
      8          1           0       -0.959538    0.926465    1.006990
      9          6           0        1.532027    1.744395    0.505201
     10          1           0        2.692757    0.697138   -0.939587
     11          1           0       -2.201207   -0.512498   -1.362662
     12          1           0       -1.347469    1.057629   -1.359695
     13          1           0        2.397597    2.356583    0.773143
     14          1           0        0.982594    1.528560    1.427491
     15          8           0       -3.189984    1.045659   -0.400925
     16          1           0       -3.750118    1.147471   -1.167260
     17          8           0       -2.192272   -0.685346    1.360124
     18          1           0       -3.044814   -0.254277    1.261926
     19          8           0       -0.593937   -2.188342   -0.145061
     20          1           0       -1.359423   -2.404792    0.392749
     21          8           0        1.729077   -1.640195   -1.057366
     22          1           0        1.121653   -2.384645   -1.065380
     23          8           0        2.788234   -0.183182    0.923107
     24          1           0        2.993612   -1.061198    0.591258
     25          8           0        0.717909    2.392606   -0.453189
     26          1           0        0.465989    3.251194   -0.119467
 ---------------------------------------------------------------------

 SCF Done:  E(RwB97XD) =  -688.476569840     A.U. after    1 cycles

 The electronic state is 1-A.
 Alpha  occ. eigenvalues --  -19.26805 -19.26378 -19.25686 -19.25554 -19.24755
 Alpha  occ. eigenvalues --  -19.24327 -10.34004 -10.33927 -10.33635 -10.33453
 Alpha  occ. eigenvalues --  -10.33430 -10.33385  -1.16376  -1.15075  -1.14246
 Alpha  occ. eigenvalues --   -1.13273  -1.11997  -1.10678  -0.88923  -0.85205
 Alpha  occ. eigenvalues --   -0.80421  -0.76171  -0.70893  -0.66761  -0.64095
 Alpha  occ. eigenvalues --   -0.62897  -0.62437  -0.61360  -0.58454  -0.57501
 Alpha  occ. eigenvalues --   -0.57193  -0.56018  -0.54182  -0.52002  -0.50889
 Alpha  occ. eigenvalues --   -0.49300  -0.48016  -0.46360  -0.45378  -0.44789
 Alpha  occ. eigenvalues --   -0.44157  -0.43094  -0.41281  -0.38633  -0.37797
 Alpha  occ. eigenvalues --   -0.37316  -0.37049  -0.35696  -0.35229
 Alpha virt. eigenvalues --    0.09248   0.09831   0.11989   0.13426   0.13898
 Alpha virt. eigenvalues --    0.16054   0.16504   0.16732   0.18912   0.19462
 Alpha virt. eigenvalues --    0.19990   0.21089   0.22060   0.22296   0.22500

 Mulliken charges:
               1
     1  C    0.076143
     2  C    0.117800
     3  C    0.173123
     4  C    0.152645
     5  H    0.088469
     6  H    0.099117
     7  C   -0.066462
     8  H    0.064114
     9  C   -0.059933
    10  H    0.081223
    11  H    0.098932
    12  H    0.090100
    13  H    0.111701
    14  H    0.082531
    15  O   -0.350651
    16  H    0.172671
    17  O   -0.390024
    18  H    0.196323
    19  O   -0.391526
    20  H    0.188232
    21  O   -0.393989
    22  H    0.204932
    23  O   -0.371205
    24  H    0.189489
    25  O   -0.332027
    26  H    0.168268
 Sum of Mulliken charges =  -0.00000

 Dipole moment (field-independent basis, Debye):
    X=             -2.6454    Y=              1.8785    Z=             -0.9992  Tot=              3.3949
 Quadrupole moment (field-independent basis, Debye-Ang):
   XX=            -69.9784   YY=            -65.1685   ZZ=            -74.5865
   XY=              0.7896   XZ=              4.9014   YZ=              0.2227

  Exact polarizability:     104.440      -1.204      95.799       0.939       0.162      84.538
 Approx polarizability:     104.412      -1.556     103.824       0.412       0.085     100.325

                      1                      2                      3
                      A                      A                      A
 Frequencies --     49.2449                75.7331               106.8046
 Red. masses --      5.7751                 5.6462                 3.7507
 Frc consts  --      0.0083                 0.0191                 0.0252
 IR Inten    --      0.2556                 0.4349                 3.7291

                      4                      5                      6
                      A                      A                      A
 Frequencies --    126.7884               146.5569               171.5386
 Red. masses --      5.3813                 4.7514                 5.2965
 Frc consts  --      0.0510                 0.0601                 0.0918
 IR Inten    --      1.1590                13.4413                 6.9315

                      7                      8                      9
                      A                      A                      A
 Frequencies --    207.1820               228.3251               244.7749
 Red. masses --      4.5894                 2.1082                 1.2134
 Frc consts  --      0.1161                 0.0648                 0.0428
 IR Inten    --      2.6847                51.9479               148.3464

                     10                     11                     12
                      A                      A                      A
 Frequencies --    252.4768               271.2994               309.4538
 Red. masses --      1.1645                 4.2627                 4.9714
 Frc consts  --      0.0437                 0.1849                 0.2805
 IR Inten    --     19.7626                 1.1358                 7.8831

                     13                     14                     15
                      A                      A                      A
 Frequencies --    335.7477               366.0242               385.7853
 Red. masses --      4.7161                 3.5356                 3.9642
 Frc consts  --      0.3132                 0.2791                 0.3476
 IR Inten    --     20.6646                17.3927                20.2928

                     16                     17                     18
                      A                      A                      A
 Frequencies --    429.4054               470.5503               481.5843
 Red. masses --      1.2479                 4.6797                 1.2429
 Frc consts  --      0.1356                 0.6105                 0.1698
 IR Inten    --     92.4466                 5.9365                54.4529

                     19                     20                     21
                      A                      A                      A
 Frequencies --    495.1435               500.4074               530.3593
 Red. masses --      1.8842                 1.2350                 1.5524
 Frc consts  --      0.2722                 0.1822                 0.2573
 IR Inten    --     57.6748               103.0107               100.3831

                     22                     23                     24
                      A                      A                      A
 Frequencies --    539.3705               584.6892               639.5810
 Red. masses --      2.1612                 3.5034                 4.0004
 Frc consts  --      0.3704                 0.7057                 0.9642
 IR Inten    --     14.3266                26.4912                26.0731

                     25                     26                     27
                      A                      A                      A
 Frequencies --    738.6892               864.6026               876.6489
 Red. masses --      3.4710                 2.7342                 2.6189
 Frc consts  --      1.1159                 1.2042                 1.1858
 IR Inten    --     23.3087                 7.2303                23.9895

                     28                     29                     30
                      A                      A                      A
 Frequencies --    965.8134              1016.2843              1051.0601
 Red. masses --      2.1972                 1.8966                 2.7921
 Frc consts  --      1.2075                 1.1541                 1.8173
 IR Inten    --     14.9872                17.6528                42.1437

                     31                     32                     33
                      A                      A                      A
 Frequencies --   1065.3253              1090.0809              1105.2134
 Red. masses --      2.7195                 5.0433                 2.7370
 Frc consts  --      1.8184                 3.5309                 1.9698
 IR Inten    --     43.2517               103.2164                27.3866

                     34                     35                     36
                      A                      A                      A
 Frequencies --   1114.1412              1126.6883              1142.5622
 Red. masses --      4.7777                 3.4974                 2.8041
 Frc consts  --      3.4942                 2.6158                 2.1567
 IR Inten    --     96.1685               164.2758                33.6384

                     37                     38                     39
                      A                      A                      A
 Frequencies --   1150.2497              1156.5900              1220.8889
 Red. masses --      2.6027                 3.1595                 1.1620
 Frc consts  --      2.0289                 2.4901                 1.0205
 IR Inten    --     47.1792                 7.6559                75.4027

                     40                     41                     42
                      A                      A                      A
 Frequencies --   1237.8349              1251.6810              1270.9654
 Red. masses --      1.1327                 1.1188                 1.1846
 Frc consts  --      1.0226                 1.0327                 1.1274
 IR Inten    --     57.9624                10.9511                17.5558

                     43                     44                     45
                      A                      A                      A
 Frequencies --   1277.7822              1295.9554              1301.7910
 Red. masses --      1.1854                 1.1358                 1.1094
 Frc consts  --      1.1403                 1.1239                 1.1077
 IR Inten    --     27.0948                22.3415                19.1564

                     46                     47                     48
                      A                      A                      A
 Frequencies --   1324.6141              1365.0684              1376.0162
 Red. masses --      1.1642                 1.1878                 1.2076
 Frc consts  --      1.2036                 1.3040                 1.3471
 IR Inten    --      7.9617                20.4194                 9.2834

                     49                     50                     51
                      A                      A                      A
 Frequencies --   1392.2489              1405.4738              1413.2054
 Red. masses --      1.2935                 1.3070                 1.3048
 Frc consts  --      1.4772                 1.5211                 1.5353
 IR Inten    --      7.8207                25.8292                44.5111

                     52                     53                     54
                      A                      A                      A
 Frequencies --   1429.8189              1440.6064              1471.7220
 Red. masses --      1.4234                 1.5363                 1.6116
 Frc consts  --      1.7145                 1.8785                 2.0566
 IR Inten    --     52.7853                40.6780                19.7556

                     55                     56                     57
                      A                      A                      A
 Frequencies --   1475.1953              1492.5547              1523.6207
 Red. masses --      1.6398                 1.8013                 1.0822
 Frc consts  --      2.1026                 2.3643                 1.4802
 IR Inten    --     12.6950                 9.5382                 7.0803

                     58                     59                     60
                      A                      A                      A
 Frequencies --   1541.9198              3012.5513              3032.7010
 Red. masses --      1.0812                 1.0833                 1.0581
 Frc consts  --      1.5146                 5.7925                 5.7336
 IR Inten    --      6.0026                23.0461                41.0322

                     61                     62                     63
                      A                      A                      A
 Frequencies --   3039.6692              3045.5222              3061.4939
 Red. masses --      1.0823                 1.0596                 1.0845
 Frc consts  --      5.8919                 5.7904                 5.9886
 IR Inten    --      8.1432                17.9614                43.7002

                     64                     65                     66
                      A                      A                      A
 Frequencies --   3073.7915              3080.1099              3107.9883
 Red. masses --      1.0992                 1.0903                 1.1066
 Frc consts  --      6.1191                 6.0942                 6.2977
 IR Inten    --     69.3873                19.1985                26.3764

                     67                     68                     69
                      A                      A                      A
 Frequencies --   3847.7533              3857.3536              3862.8465
 Red. masses --      1.0653                 1.0649                 1.0654
 Frc consts  --      9.2923                 9.3358                 9.3661
 IR Inten    --    143.0361                52.8552               110.0734

                     70                     71                     72
                      A                      A                      A
 Frequencies --   3867.1797              3940.6719              3946.8234
 Red. masses --      1.0652                 1.0667                 1.0669
 Frc consts  --      9.3858                 9.7599                 9.7917
 IR Inten    --     30.7422                49.3254                59.4059

 - Thermochemistry -
 -------------------
 Temperature   298.150 Kelvin.  Pressure   1.00000 Atm.
 Atom     1 has atomic number  6 and mass  12.00000

 Molecular mass:   182.07904 amu.
 Principal axes and moments of inertia in atomic units:
                           1         2         3
     Eigenvalues --  1543.548272662.377333459.85344
           X            0.99992   0.00882   0.00885
           Y           -0.00887   0.99995   0.00487
           Z           -0.00880  -0.00494   0.99995
 This molecule is an asymmetric top.
 Rotational symmetry number  1.
 Warning -- assumption of classical behavior for rotation
           may cause significant error
 Rotational temperatures (Kelvin)      0.05611     0.03253     0.02503
 Rotational constants (GHZ):           1.16922     0.67787     0.52162
 Zero-point vibrational energy     584365.0 (Joules/Mol)
                                  139.66658 (Kcal/Mol)
 Warning -- explicit consideration of  23 degrees of freedom as
           vibrations may cause significant error
 Vibrational temperatures:     70.85   108.96   153.67   182.42   210.86
          (Kelvin)            246.81   298.09   328.51   352.18   363.26
                              390.34   445.24   483.07   526.63   555.06
                              617.82   677.02   692.89   712.40   719.97
                              763.07   776.03   841.24   920.21  1062.81
                             1243.97  1261.30  1389.59  1462.21  1512.24
                             1532.77  1568.38  1590.16  1603.00  1621.05
                             1643.89  1654.95  1664.08  1756.59  1780.97
                             1800.89  1828.64  1838.44  1864.59  1872.99
                             1905.82  1964.03  1979.78  2003.14  2022.16
                             2033.29  2057.19  2072.71  2117.48  2122.48
                             2147.45  2192.15  2218.48  4334.39  4363.38
                             4373.41  4381.83  4404.81  4422.50  4431.59
                             4471.70  5536.06  5549.87  5557.77  5564.01
                             5669.75  5678.60

 Zero-point correction=                           0.222573 (Hartree/Particle)
 Thermal correction to Energy=                    0.236255
 Thermal correction to Enthalpy=                  0.237200
 Thermal correction to Gibbs Free Energy=         0.183050
 Sum of electronic and zero-point Energies=           -688.253997
 Sum of electronic and thermal Energies=              -688.240314
 Sum of electronic and thermal Enthalpies=            -688.239370
 Sum of electronic and thermal Free Energies=         -688.293520

                     E (Thermal)             CV                S
                      KCal/Mol        Cal/Mol-Kelvin    Cal/Mol-Kelvin
 Total                  148.252             51.102            113.967
 Electronic               0.000              0.000              0.000
 Translational            0.889              2.981             41.504
 Rotational               0.889              2.981             31.031
 Vibrational            146.475             45.140             41.431
 Vibration     1          0.595              1.978              4.847
 Vibration     2          0.599              1.965              3.999
 Vibration     3          0.606              1.944              3.326
 Vibration     4          0.611              1.926              2.994
 Vibration     5          0.617              1.906              2.716
 Vibration     6          0.626              1.878              2.419
 Vibration     7          0.641              1.830              2.068
 Vibration     8          0.651              1.798              1.892
 Vibration     9          0.660              1.771              1.768
 Vibration    10          0.664              1.759              1.713
 Vibration    11          0.675              1.726              1.588
 Vibration    12          0.699              1.656              1.365
 Vibration    13          0.717              1.604              1.232
 Vibration    14          0.739              1.542              1.096
 Vibration    15          0.754              1.501              1.016
 Vibration    16          0.791              1.406              0.861
 Vibration    17          0.828              1.315              0.736
 Vibration    18          0.838              1.291              0.706
 Vibration    19          0.851              1.261              0.670
 Vibration    20          0.856              1.249              0.657
 Vibration    21          0.885              1.183              0.586
 Vibration    22          0.894              1.163              0.567
 Vibration    23          0.942              1.064              0.477

                           ! Non-Optimized Parameters !
 Normal termination of Gaussian 16 at Wed Oct 11 15:41:43 2023.
