 Gaussian 16, Revision C.01,
 Gaussian 16:  ES64L-G16RevC.01  3-Jul-2019

 ---------------------------------------------
 # opt freq wb97xd/Def2TZVPP geom=connectivity
 ---------------------------------------------

 -------------------
 Title Card Required
 -------------------
 Symbolic Z-matrix:
 Charge =  0 Multiplicity = 1

 SCF Done:  E(RwB97XD) =  -688.474440844     A.U. after   14 cycles
 SCF Done:  E(RwB97XD) =  -688.480501085     A.U. after   12 cycles
 SCF Done:  E(RwB97XD) =  -688.479790136     A.U. after   12 cycles
 SCF Done:  E(RwB97XD) =  -688.481705251     A.U. after   11 cycles
 SCF Done:  E(RwB97XD) =  -688.482189404     A.U. after   11 cycles
 SCF Done:  E(RwB97XD) =  -688.482371924     A.U. after   11 cycles
 SCF Done:  E(RwB97XD) =  -688.482409578     A.U. after   11 cycles
 SCF Done:  E(RwB97XD) =  -688.482459836     A.U. after   10 cycles
 SCF Done:  E(RwB97XD) =  -688.482478720     A.U. after    9 cycles
 SCF Done:  E(RwB97XD) =  -688.482481951     A.U. after    8 cycles
 SCF Done:  E(RwB97XD) =  -688.482482675     A.U. after    7 cycles
 SCF Done:  E(RwB97XD) =  -688.482482772     A.U. after    7 cycles
 SCF Done:  E(RwB97XD) =  -688.482482841     A.U. after    6 cycles
 Optimization completed.
    -- Stationary point found.
 Normal termination of Gaussian 16 at Wed Oct 11 14:44:46 2023.

 ----------------------------------------------------------------------
 #N Geom=AllCheck Guess=TCheck SCRF=Check GenChk RwB97XD/def2TZVPP Freq
 ----------------------------------------------------------------------

 Structure from the checkpoint file:  "MannitolConformerOpt_41.chk"
 -------------------
 Title Card Required
 -------------------
 Charge =  0 Multiplicity = 1

                         Standard orientation:
 ---------------------------------------------------------------------
 Center     Atomic      Atomic             Coordinates (Angstroms)
 Number     Number       Type             X           Y           Z
 ---------------------------------------------------------------------
      1          6           0        0.656756    0.544599    0.085530
      2          6           0       -0.721787    0.710231   -0.553538
      3          6           0        1.564578   -0.431334   -0.677863
      4          6           0       -1.587072   -0.548288   -0.650030
      5          1           0       -0.564738    1.084300   -1.569153
      6          1           0        0.537912    0.158421    1.106895
      7          6           0        3.039797   -0.155714   -0.429575
      8          1           0        1.375807   -0.343903   -1.751603
      9          6           0       -1.875384   -1.216799    0.688612
     10          1           0       -1.074147   -1.277903   -1.278262
     11          1           0        3.316772    0.818633   -0.833315
     12          1           0        3.622089   -0.924464   -0.937708
     13          1           0       -0.949393   -1.513003    1.175586
     14          1           0       -2.465793   -2.118233    0.509033
     15          8           0        3.350063   -0.255209    0.948112
     16          1           0        3.061983    0.558592    1.364690
     17          8           0        1.241914   -1.761910   -0.319637
     18          1           0        1.700285   -1.944766    0.504523
     19          8           0        1.283500    1.811253    0.133774
     20          1           0        0.596381    2.446622    0.353215
     21          8           0       -1.427316    1.749986    0.119433
     22          1           0       -1.788884    1.361669    0.927309
     23          8           0       -2.812694   -0.217548   -1.282759
     24          1           0       -2.980240    0.712173   -1.113198
     25          8           0       -2.558998   -0.347611    1.587040
     26          1           0       -3.461103   -0.265999    1.275470
 ---------------------------------------------------------------------

 SCF Done:  E(RwB97XD) =  -688.482482841     A.U. after    1 cycles

 The electronic state is 1-A.
 Alpha  occ. eigenvalues --  -19.27425 -19.26778 -19.26126 -19.25895 -19.25750
 Alpha  occ. eigenvalues --  -19.25677 -10.34911 -10.34575 -10.34352 -10.34312
 Alpha  occ. eigenvalues --  -10.33803 -10.33106  -1.17116  -1.15533  -1.14520
 Alpha  occ. eigenvalues --   -1.13321  -1.12558  -1.12188  -0.89369  -0.85566
 Alpha  occ. eigenvalues --   -0.81197  -0.76180  -0.71959  -0.69953  -0.64651
 Alpha  occ. eigenvalues --   -0.63789  -0.60872  -0.60502  -0.59804  -0.58615
 Alpha  occ. eigenvalues --   -0.57642  -0.55696  -0.54124  -0.52181  -0.51811
 Alpha  occ. eigenvalues --   -0.50241  -0.49522  -0.47682  -0.45760  -0.44868
 Alpha  occ. eigenvalues --   -0.44346  -0.42903  -0.42353  -0.40904  -0.39621
 Alpha  occ. eigenvalues --   -0.38801  -0.36823  -0.36094  -0.35436
 Alpha virt. eigenvalues --    0.08899   0.10597   0.11929   0.12318   0.14841
 Alpha virt. eigenvalues --    0.15430   0.15925   0.16434   0.17306   0.18105
 Alpha virt. eigenvalues --    0.18808   0.19638   0.20704   0.20883   0.22706

 Mulliken charges:
               1
     1  C    0.031481
     2  C    0.105039
     3  C    0.167463
     4  C    0.148118
     5  H    0.100031
     6  H    0.070322
     7  C    0.021289
     8  H    0.064800
     9  C    0.012616
    10  H    0.068232
    11  H    0.089154
    12  H    0.091947
    13  H    0.074172
    14  H    0.095900
    15  O   -0.370554
    16  H    0.190815
    17  O   -0.373129
    18  H    0.184098
    19  O   -0.370833
    20  H    0.189761
    21  O   -0.428111
    22  H    0.206134
    23  O   -0.374751
    24  H    0.188178
    25  O   -0.355330
    26  H    0.173157
 Sum of Mulliken charges =   0.00000

 Dipole moment (field-independent basis, Debye):
    X=             -0.9156    Y=              0.6174    Z=              0.5216  Tot=              1.2213
 Quadrupole moment (field-independent basis, Debye-Ang):
   XX=            -73.8184   YY=            -73.7575   ZZ=            -73.8405
   XY=              0.4138   XZ=             -5.0324   YZ=             -0.4805

  Exact polarizability:     106.602       0.088      92.082      -1.100      -0.218      85.745
 Approx polarizability:     103.292      -1.681     104.949       0.047       0.431     101.561

                      1                      2                      3
                      A                      A                      A
 Frequencies --     46.9902                77.4306                94.6008
 Red. masses --      5.7334                 4.9947                 5.6671
 Frc consts  --      0.0075                 0.0176                 0.0299
 IR Inten    --      1.4604                 1.8200                 6.6974

                      4                      5                      6
                      A                      A                      A
 Frequencies --    110.3102               138.5669               171.4436
 Red. masses --      5.3957                 5.2556                 4.8393
 Frc consts  --      0.0387                 0.0595                 0.0838
 IR Inten    --      3.5804                 6.0669                19.5734

                      7                      8                      9
                      A                      A                      A
 Frequencies --    206.9032               246.5412               274.0597
 Red. masses --      4.7141                 5.5697                 4.4114
 Frc consts  --      0.1189                 0.1995                 0.1952
 IR Inten    --      3.6792                 5.5261                11.5151

                     10                     11                     12
                      A                      A                      A
 Frequencies --    307.0506               313.2663               333.5331
 Red. masses --      3.3092                 2.4354                 3.5338
 Frc consts  --      0.1838                 0.1408                 0.2316
 IR Inten    --      8.2840                48.0921                26.7117

                     13                     14                     15
                      A                      A                      A
 Frequencies --    362.6552               377.2690               425.9977
 Red. masses --      2.0640                 2.2561                 1.0780
 Frc consts  --      0.1599                 0.1892                 0.1153
 IR Inten    --     75.1172                53.8006                50.6955

                     16                     17                     18
                      A                      A                      A
 Frequencies --    431.9997               452.4539               496.8020
 Red. masses --      1.1494                 2.5933                 1.5641
 Frc consts  --      0.1264                 0.3128                 0.2274
 IR Inten    --     27.4604                37.6148                98.8419

                     19                     20                     21
                      A                      A                      A
 Frequencies --    504.3859               520.1356               542.3097
 Red. masses --      2.0115                 1.2460                 2.7856
 Frc consts  --      0.3015                 0.1986                 0.4827
 IR Inten    --     74.9762                67.5174                40.7276

                     22                     23                     24
                      A                      A                      A
 Frequencies --    569.7382               717.2066               723.5257
 Red. masses --      3.7764                 3.4166                 1.1269
 Frc consts  --      0.7222                 1.0355                 0.3476
 IR Inten    --     24.0543                 8.7050               105.2675

                     25                     26                     27
                      A                      A                      A
 Frequencies --    812.5453               845.7257               886.4353
 Red. masses --      3.9387                 3.0318                 3.3117
 Frc consts  --      1.5321                 1.2776                 1.5332
 IR Inten    --     13.0404                23.3725                25.6229

                     28                     29                     30
                      A                      A                      A
 Frequencies --    940.5501               960.8651               983.1379
 Red. masses --      1.7863                 2.1709                 2.2089
 Frc consts  --      0.9310                 1.1809                 1.2580
 IR Inten    --     24.4677                 6.0686                18.6254

                     31                     32                     33
                      A                      A                      A
 Frequencies --   1053.5115              1068.1769              1096.5583
 Red. masses --      3.0315                 3.9888                 3.9118
 Frc consts  --      1.9824                 2.6815                 2.7714
 IR Inten    --    131.2804                18.5669                99.4575

                     34                     35                     36
                      A                      A                      A
 Frequencies --   1104.3380              1116.2545              1137.6625
 Red. masses --      2.2805                 2.2350                 2.9684
 Frc consts  --      1.6387                 1.6408                 2.2636
 IR Inten    --     43.5226               149.6597                28.2073

                     37                     38                     39
                      A                      A                      A
 Frequencies --   1141.3590              1152.1578              1212.5204
 Red. masses --      2.7579                 2.6250                 1.1745
 Frc consts  --      2.1167                 2.0531                 1.0173
 IR Inten    --     43.7834                61.7803                 6.5974

                     40                     41                     42
                      A                      A                      A
 Frequencies --   1225.8286              1257.3557              1274.8386
 Red. masses --      1.1494                 1.2767                 1.3560
 Frc consts  --      1.0176                 1.1892                 1.2984
 IR Inten    --     51.5373                30.9230                 4.7739

                     43                     44                     45
                      A                      A                      A
 Frequencies --   1290.0467              1309.6410              1327.9017
 Red. masses --      1.3769                 1.4940                 1.2884
 Frc consts  --      1.3501                 1.5097                 1.3385
 IR Inten    --      4.9725                 5.1343               115.9053

                     46                     47                     48
                      A                      A                      A
 Frequencies --   1357.8315              1380.4062              1394.9457
 Red. masses --      1.3565                 1.3398                 1.2350
 Frc consts  --      1.4736                 1.5042                 1.4159
 IR Inten    --      5.6934                15.0896                17.4827

                     49                     50                     51
                      A                      A                      A
 Frequencies --   1404.6955              1409.6588              1416.4883
 Red. masses --      1.2860                 1.1998                 1.2730
 Frc consts  --      1.4950                 1.4048                 1.5049
 IR Inten    --      2.4435                39.0219                29.3798

                     52                     53                     54
                      A                      A                      A
 Frequencies --   1423.6015              1431.5829              1440.8494
 Red. masses --      1.2965                 1.3289                 1.3905
 Frc consts  --      1.5481                 1.6047                 1.7009
 IR Inten    --     13.0407                37.5267                18.4622

                     55                     56                     57
                      A                      A                      A
 Frequencies --   1456.6604              1474.0056              1502.5721
 Red. masses --      1.6617                 1.2474                 1.0812
 Frc consts  --      2.0775                 1.5969                 1.4382
 IR Inten    --      9.9754                52.8044                10.0104

                     58                     59                     60
                      A                      A                      A
 Frequencies --   1517.8907              3001.7243              3061.4221
 Red. masses --      1.0811                 1.0823                 1.0829
 Frc consts  --      1.4676                 5.7459                 5.9800
 IR Inten    --      8.7327                26.2711                 5.1800

                     61                     62                     63
                      A                      A                      A
 Frequencies --   3066.7691              3067.4031              3081.5205
 Red. masses --      1.0831                 1.0704                 1.0634
 Frc consts  --      6.0019                 5.9337                 5.9493
 IR Inten    --     25.4532                35.2032                52.8608

                     64                     65                     66
                      A                      A                      A
 Frequencies --   3102.9964              3131.9815              3162.6463
 Red. masses --      1.0863                 1.1090                 1.0957
 Frc consts  --      6.1628                 6.4093                 6.4573
 IR Inten    --     14.8207                16.5068                17.9423

                     67                     68                     69
                      A                      A                      A
 Frequencies --   3741.3954              3842.2290              3853.7503
 Red. masses --      1.0659                 1.0654                 1.0657
 Frc consts  --      8.7907                 9.2668                 9.3254
 IR Inten    --    181.1925                64.8758                49.2783

                     70                     71                     72
                      A                      A                      A
 Frequencies --   3863.6679              3891.5739              3901.5546
 Red. masses --      1.0659                 1.0659                 1.0659
 Frc consts  --      9.3750                 9.5112                 9.5595
 IR Inten    --     61.1837                40.7141                46.9526

 - Thermochemistry -
 -------------------
 Temperature   298.150 Kelvin.  Pressure   1.00000 Atm.
 Atom     1 has atomic number  6 and mass  12.00000

 Molecular mass:   182.07904 amu.
 Principal axes and moments of inertia in atomic units:
                           1         2         3
     Eigenvalues --  1197.494813262.520723581.29813
           X            0.99996   0.00435  -0.00835
           Y           -0.00446   0.99990  -0.01338
           Z            0.00829   0.01342   0.99988
 This molecule is an asymmetric top.
 Rotational symmetry number  1.
 Warning -- assumption of classical behavior for rotation
           may cause significant error
 Rotational temperatures (Kelvin)      0.07233     0.02655     0.02419
 Rotational constants (GHZ):           1.50710     0.55317     0.50393
 Zero-point vibrational energy     586316.2 (Joules/Mol)
                                  140.13293 (Kcal/Mol)
 Warning -- explicit consideration of  22 degrees of freedom as
           vibrations may cause significant error
 Vibrational temperatures:     67.61   111.41   136.11   158.71   199.37
          (Kelvin)            246.67   297.69   354.72   394.31   441.78
                              450.72   479.88   521.78   542.81   612.92
                              621.55   650.98   714.79   725.70   748.36
                              780.26   819.73  1031.90  1040.99  1169.07
                             1216.81  1275.38  1353.24  1382.47  1414.52
                             1515.77  1536.87  1577.70  1588.90  1606.04
                             1636.84  1642.16  1657.70  1744.55  1763.69
                             1809.05  1834.21  1856.09  1884.28  1910.55
                             1953.62  1986.10  2007.02  2021.04  2028.18
                             2038.01  2048.24  2059.73  2073.06  2095.81
                             2120.77  2161.87  2183.91  4318.81  4404.70
                             4412.40  4413.31  4433.62  4464.52  4506.22
                             4550.34  5383.03  5528.11  5544.69  5558.96
                             5599.11  5613.47

 Zero-point correction=                           0.223316 (Hartree/Particle)
 Thermal correction to Energy=                    0.236629
 Thermal correction to Enthalpy=                  0.237573
 Thermal correction to Gibbs Free Energy=         0.183964
 Sum of electronic and zero-point Energies=           -688.259167
 Sum of electronic and thermal Energies=              -688.245854
 Sum of electronic and thermal Enthalpies=            -688.244909
 Sum of electronic and thermal Free Energies=         -688.298519

                     E (Thermal)             CV                S
                      KCal/Mol        Cal/Mol-Kelvin    Cal/Mol-Kelvin
 Total                  148.487             50.182            112.832
 Electronic               0.000              0.000              0.000
 Translational            0.889              2.981             41.504
 Rotational               0.889              2.981             31.015
 Vibrational            146.710             44.221             40.312
 Vibration     1          0.595              1.979              4.940
 Vibration     2          0.599              1.964              3.955
 Vibration     3          0.603              1.953              3.563
 Vibration     4          0.606              1.941              3.263
 Vibration     5          0.614              1.915              2.824
 Vibration     6          0.626              1.878              2.420
 Vibration     7          0.641              1.830              2.071
 Vibration     8          0.661              1.769              1.755
 Vibration     9          0.676              1.721              1.570
 Vibration    10          0.697              1.660              1.378
 Vibration    11          0.701              1.648              1.345
 Vibration    12          0.715              1.609              1.243
 Vibration    13          0.737              1.549              1.111
 Vibration    14          0.748              1.519              1.050
 Vibration    15          0.788              1.414              0.872
 Vibration    16          0.793              1.401              0.852
 Vibration    17          0.811              1.355              0.788
 Vibration    18          0.852              1.257              0.666
 Vibration    19          0.860              1.240              0.647
 Vibration    20          0.875              1.205              0.610
 Vibration    21          0.897              1.157              0.560
 Vibration    22          0.926              1.097              0.505

                           ! Non-Optimized Parameters !
 Normal termination of Gaussian 16 at Wed Oct 11 15:27:45 2023.
