 Gaussian 16, Revision C.01,
 Gaussian 16:  ES64L-G16RevC.01  3-Jul-2019

 ---------------------------------------------
 # opt freq wb97xd/def2tzvpp geom=connectivity
 ---------------------------------------------

 --------------------------------
 Mannitol Conformer Optimziations
 --------------------------------
 Symbolic Z-matrix:
 Charge =  0 Multiplicity = 1

 SCF Done:  E(RwB97XD) =  -688.469137217     A.U. after   13 cycles
 SCF Done:  E(RwB97XD) =  -688.477532782     A.U. after   12 cycles
 SCF Done:  E(RwB97XD) =  -688.477919181     A.U. after   11 cycles
 SCF Done:  E(RwB97XD) =  -688.479590522     A.U. after   11 cycles
 SCF Done:  E(RwB97XD) =  -688.479621737     A.U. after   11 cycles
 SCF Done:  E(RwB97XD) =  -688.479772493     A.U. after   11 cycles
 SCF Done:  E(RwB97XD) =  -688.480190784     A.U. after   11 cycles
 SCF Done:  E(RwB97XD) =  -688.480386005     A.U. after   11 cycles
 SCF Done:  E(RwB97XD) =  -688.480469112     A.U. after   11 cycles
 SCF Done:  E(RwB97XD) =  -688.480520269     A.U. after   10 cycles
 SCF Done:  E(RwB97XD) =  -688.480553038     A.U. after   10 cycles
 SCF Done:  E(RwB97XD) =  -688.480564040     A.U. after    8 cycles
 SCF Done:  E(RwB97XD) =  -688.480566088     A.U. after    8 cycles
 SCF Done:  E(RwB97XD) =  -688.480566602     A.U. after    7 cycles
 SCF Done:  E(RwB97XD) =  -688.480566706     A.U. after    6 cycles
 SCF Done:  E(RwB97XD) =  -688.480566771     A.U. after    6 cycles
 SCF Done:  E(RwB97XD) =  -688.480566829     A.U. after    6 cycles
 Optimization completed.
    -- Stationary point found.
 Normal termination of Gaussian 16 at Wed Sep 27 11:49:38 2023.

 ----------------------------------------------------------------------
 #N Geom=AllCheck Guess=TCheck SCRF=Check GenChk RwB97XD/def2TZVPP Freq
 ----------------------------------------------------------------------

 Structure from the checkpoint file:  "MannitolConformerOpt_23.chk"
 --------------------------------
 Mannitol Conformer Optimziations
 --------------------------------
 Charge =  0 Multiplicity = 1

                         Standard orientation:
 ---------------------------------------------------------------------
 Center     Atomic      Atomic             Coordinates (Angstroms)
 Number     Number       Type             X           Y           Z
 ---------------------------------------------------------------------
      1          6           0       -0.424565    0.359519    0.129574
      2          6           0        0.520845   -0.445796   -0.779281
      3          6           0       -1.722778    0.816742   -0.546809
      4          6           0        1.957469   -0.464712   -0.250856
      5          1           0        0.545836    0.021905   -1.767101
      6          1           0        0.082147    1.278995    0.437342
      7          6           0       -2.791694   -0.270617   -0.670311
      8          1           0       -1.459037    1.159372   -1.551282
      9          6           0        2.702867    0.836008   -0.487147
     10          1           0        2.484154   -1.262600   -0.784748
     11          1           0       -2.363335   -1.177582   -1.102398
     12          1           0       -3.579389    0.089234   -1.331758
     13          1           0        2.166431    1.673123   -0.029173
     14          1           0        2.787453    1.018552   -1.563359
     15          8           0       -3.409080   -0.519239    0.577861
     16          1           0       -2.714992   -0.807688    1.177603
     17          8           0       -2.259533    1.926516    0.136737
     18          1           0       -2.883238    1.572244    0.777405
     19          8           0       -0.746675   -0.411807    1.280969
     20          1           0        0.081358   -0.572560    1.746024
     21          8           0        0.049865   -1.758473   -0.976885
     22          1           0       -0.260337   -2.075105   -0.124744
     23          8           0        1.938154   -0.764439    1.138157
     24          1           0        2.825799   -0.616127    1.471040
     25          8           0        3.979416    0.676001    0.107040
     26          1           0        4.417121    1.522910    0.163083
 ---------------------------------------------------------------------

 SCF Done:  E(RwB97XD) =  -688.480566829     A.U. after    1 cycles

 The electronic state is 1-A.
 Alpha  occ. eigenvalues --  -19.27978 -19.27295 -19.26459 -19.25564 -19.24153
 Alpha  occ. eigenvalues --  -19.23896 -10.35257 -10.34983 -10.34904 -10.34300
 Alpha  occ. eigenvalues --  -10.33428 -10.32158  -1.17315  -1.15853  -1.14106
 Alpha  occ. eigenvalues --   -1.13290  -1.12329  -1.10674  -0.89842  -0.85870
 Alpha  occ. eigenvalues --   -0.80389  -0.76331  -0.70922  -0.69158  -0.66368
 Alpha  occ. eigenvalues --   -0.63465  -0.62077  -0.60629  -0.58571  -0.57734
 Alpha  occ. eigenvalues --   -0.56754  -0.55209  -0.54488  -0.53212  -0.52519
 Alpha  occ. eigenvalues --   -0.50121  -0.49036  -0.47539  -0.46906  -0.44922
 Alpha  occ. eigenvalues --   -0.43706  -0.42440  -0.41015  -0.39479  -0.38775
 Alpha  occ. eigenvalues --   -0.38388  -0.37808  -0.35732  -0.34604
 Alpha virt. eigenvalues --    0.08246   0.10764   0.11411   0.13324   0.14254
 Alpha virt. eigenvalues --    0.14724   0.15011   0.17075   0.17684   0.18880
 Alpha virt. eigenvalues --    0.19363   0.19718   0.21243   0.22045   0.22583

 Mulliken charges:
               1
     1  C    0.045504
     2  C    0.162213
     3  C    0.197643
     4  C    0.126896
     5  H    0.057763
     6  H    0.095055
     7  C   -0.014036
     8  H    0.056777
     9  C   -0.040940
    10  H    0.094139
    11  H    0.083956
    12  H    0.086769
    13  H    0.090473
    14  H    0.077982
    15  O   -0.381350
    16  H    0.203710
    17  O   -0.370748
    18  H    0.187660
    19  O   -0.412868
    20  H    0.197237
    21  O   -0.357919
    22  H    0.182218
    23  O   -0.384792
    24  H    0.182462
    25  O   -0.340825
    26  H    0.175021
 Sum of Mulliken charges =  -0.00000

 Dipole moment (field-independent basis, Debye):
    X=              4.3915    Y=              1.3672    Z=             -0.1480  Tot=              4.6018
 Quadrupole moment (field-independent basis, Debye-Ang):
   XX=            -74.0647   YY=            -75.1261   ZZ=            -69.2640
   XY=              8.9252   XZ=              2.4981   YZ=             -3.2740

  Exact polarizability:     110.450       2.295      88.093       0.332      -0.892      87.081
 Approx polarizability:     104.365       1.678     100.766      -0.805      -1.797     103.741

                      1                      2                      3
                      A                      A                      A
 Frequencies --     35.6070                63.6963                88.9147
 Red. masses --      4.8285                 5.8119                 5.1673
 Frc consts  --      0.0036                 0.0139                 0.0241
 IR Inten    --      1.1358                 3.8001                 1.9251

                      4                      5                      6
                      A                      A                      A
 Frequencies --     98.9109               162.6930               185.9119
 Red. masses --      3.6496                 4.0106                 5.4545
 Frc consts  --      0.0210                 0.0625                 0.1111
 IR Inten    --      8.6680                 3.0336                 0.4772

                      7                      8                      9
                      A                      A                      A
 Frequencies --    209.1945               237.4626               260.6935
 Red. masses --      4.7130                 4.0677                 1.1269
 Frc consts  --      0.1215                 0.1351                 0.0451
 IR Inten    --     14.6499                 2.2647                98.4339

                     10                     11                     12
                      A                      A                      A
 Frequencies --    264.5629               291.5310               299.3774
 Red. masses --      4.4540                 3.5905                 3.8092
 Frc consts  --      0.1837                 0.1798                 0.2012
 IR Inten    --     10.8859                10.6763                12.8790

                     13                     14                     15
                      A                      A                      A
 Frequencies --    335.9993               352.5212               410.8871
 Red. masses --      4.7519                 4.1618                 4.6745
 Frc consts  --      0.3161                 0.3047                 0.4650
 IR Inten    --      5.3173                10.8891                12.4572

                     16                     17                     18
                      A                      A                      A
 Frequencies --    422.9392               435.4773               443.3121
 Red. masses --      1.2299                 1.1580                 1.2231
 Frc consts  --      0.1296                 0.1294                 0.1416
 IR Inten    --    126.9868                25.8626                64.9212

                     19                     20                     21
                      A                      A                      A
 Frequencies --    495.1513               551.7018               608.4937
 Red. masses --      2.7743                 2.6527                 1.2317
 Frc consts  --      0.4008                 0.4757                 0.2687
 IR Inten    --     12.0738                 9.7266               207.5732

                     22                     23                     24
                      A                      A                      A
 Frequencies --    623.3180               657.7539               781.9397
 Red. masses --      1.1390                 2.6090                 3.8192
 Frc consts  --      0.2607                 0.6650                 1.3759
 IR Inten    --    137.2742                10.3233                10.0040

                     25                     26                     27
                      A                      A                      A
 Frequencies --    793.0689               844.0468               885.7038
 Red. masses --      4.2314                 3.2577                 3.5175
 Frc consts  --      1.5680                 1.3674                 1.6258
 IR Inten    --     27.0446                16.4202                22.7740

                     28                     29                     30
                      A                      A                      A
 Frequencies --    921.8784               980.1881               991.4662
 Red. masses --      2.6740                 1.8819                 2.4648
 Frc consts  --      1.3389                 1.0653                 1.4275
 IR Inten    --     25.6003                 8.1032                 8.5830

                     31                     32                     33
                      A                      A                      A
 Frequencies --   1034.5612              1065.2495              1102.2257
 Red. masses --      2.0368                 2.9175                 2.9329
 Frc consts  --      1.2844                 1.9506                 2.0994
 IR Inten    --     34.1262                55.4712                65.7278

                     34                     35                     36
                      A                      A                      A
 Frequencies --   1105.0034              1123.8618              1132.3125
 Red. masses --      3.8048                 3.0528                 2.7320
 Frc consts  --      2.7372                 2.2718                 2.0637
 IR Inten    --     49.3151                42.0882               163.1509

                     37                     38                     39
                      A                      A                      A
 Frequencies --   1142.9160              1171.6922              1222.7178
 Red. masses --      2.6742                 2.8778                 1.1047
 Frc consts  --      2.0581                 2.3278                 0.9731
 IR Inten    --     11.9828                74.6716                34.4642

                     40                     41                     42
                      A                      A                      A
 Frequencies --   1229.2622              1240.9789              1259.4915
 Red. masses --      1.1137                 1.1237                 1.3375
 Frc consts  --      0.9915                 1.0196                 1.2501
 IR Inten    --     52.6273                41.7249                77.8612

                     43                     44                     45
                      A                      A                      A
 Frequencies --   1281.6353              1286.8304              1304.0637
 Red. masses --      1.4734                 1.1161                 1.3082
 Frc consts  --      1.4259                 1.0890                 1.3108
 IR Inten    --     26.2038                 3.4255                33.2123

                     46                     47                     48
                      A                      A                      A
 Frequencies --   1335.9087              1364.0967              1394.1388
 Red. masses --      1.2690                 1.2735                 1.2870
 Frc consts  --      1.3343                 1.3961                 1.4738
 IR Inten    --      8.5374                16.0443                 5.8885

                     49                     50                     51
                      A                      A                      A
 Frequencies --   1404.9624              1412.1884              1421.1393
 Red. masses --      1.4538                 1.4658                 1.2891
 Frc consts  --      1.6907                 1.7223                 1.5339
 IR Inten    --     26.3666                 2.8515                 1.4721

                     52                     53                     54
                      A                      A                      A
 Frequencies --   1428.9204              1440.4084              1455.0473
 Red. masses --      1.2059                 1.3546                 1.4540
 Frc consts  --      1.4507                 1.6559                 1.8137
 IR Inten    --     32.0866                40.8627                24.3404

                     55                     56                     57
                      A                      A                      A
 Frequencies --   1461.1587              1470.5304              1517.4732
 Red. masses --      1.3456                 1.6260                 1.0868
 Frc consts  --      1.6927                 2.0717                 1.4745
 IR Inten    --    112.1182                 7.6999                 6.1251

                     58                     59                     60
                      A                      A                      A
 Frequencies --   1519.7275              3025.1983              3042.4672
 Red. masses --      1.0815                 1.0563                 1.0857
 Frc consts  --      1.4716                 5.6958                 5.9214
 IR Inten    --      7.7263                31.8367                13.2117

                     61                     62                     63
                      A                      A                      A
 Frequencies --   3053.0089              3058.8793              3069.6180
 Red. masses --      1.0845                 1.0812                 1.0721
 Frc consts  --      5.9555                 5.9605                 5.9520
 IR Inten    --     17.0364                 9.8026                26.4042

                     64                     65                     66
                      A                      A                      A
 Frequencies --   3074.6645              3078.7905              3124.5292
 Red. masses --      1.0810                 1.1016                 1.1064
 Frc consts  --      6.0213                 6.1523                 6.3640
 IR Inten    --     34.7779                70.3340                23.7385

                     67                     68                     69
                      A                      A                      A
 Frequencies --   3799.1248              3825.9407              3839.1581
 Red. masses --      1.0659                 1.0654                 1.0652
 Frc consts  --      9.0644                 9.1883                 9.2502
 IR Inten    --    231.8192                56.6583                97.8173

                     70                     71                     72
                      A                      A                      A
 Frequencies --   3859.3116              3872.9038              3944.4570
 Red. masses --      1.0651                 1.0657                 1.0669
 Frc consts  --      9.3465                 9.4178                 9.7801
 IR Inten    --     46.3898                73.8033                61.1689

 - Thermochemistry -
 -------------------
 Temperature   298.150 Kelvin.  Pressure   1.00000 Atm.
 Atom     1 has atomic number  6 and mass  12.00000

 Molecular mass:   182.07904 amu.
 Principal axes and moments of inertia in atomic units:
                           1         2         3
     Eigenvalues --  1013.785953744.997833993.13602
           X            0.99995   0.00963   0.00204
           Y           -0.00957   0.99959  -0.02689
           Z           -0.00230   0.02687   0.99964
 This molecule is an asymmetric top.
 Rotational symmetry number  1.
 Warning -- assumption of classical behavior for rotation
           may cause significant error
 Rotational temperatures (Kelvin)      0.08544     0.02313     0.02169
 Rotational constants (GHZ):           1.78020     0.48191     0.45196
 Zero-point vibrational energy     584560.9 (Joules/Mol)
                                  139.71342 (Kcal/Mol)
 Warning -- explicit consideration of  21 degrees of freedom as
           vibrations may cause significant error
 Vibrational temperatures:     51.23    91.64   127.93   142.31   234.08
          (Kelvin)            267.49   300.98   341.66   375.08   380.65
                              419.45   430.74   483.43   507.20   591.17
                              608.52   626.55   637.83   712.41   793.78
                              875.49   896.82   946.36  1125.04  1141.05
                             1214.40  1274.33  1326.38  1410.27  1426.50
                             1488.50  1532.66  1585.86  1589.85  1616.99
                             1629.15  1644.40  1685.80  1759.22  1768.63
                             1785.49  1812.13  1843.99  1851.46  1876.26
                             1922.07  1962.63  2005.85  2021.43  2031.82
                             2044.70  2055.90  2072.43  2093.49  2102.28
                             2115.77  2183.31  2186.55  4352.59  4377.43
                             4392.60  4401.05  4416.50  4423.76  4429.69
                             4495.50  5466.09  5504.68  5523.69  5552.69
                             5572.24  5675.19

 Zero-point correction=                           0.222648 (Hartree/Particle)
 Thermal correction to Energy=                    0.236197
 Thermal correction to Enthalpy=                  0.237141
 Thermal correction to Gibbs Free Energy=         0.182647
 Sum of electronic and zero-point Energies=           -688.257919
 Sum of electronic and thermal Energies=              -688.244370
 Sum of electronic and thermal Enthalpies=            -688.243426
 Sum of electronic and thermal Free Energies=         -688.297920

                     E (Thermal)             CV                S
                      KCal/Mol        Cal/Mol-Kelvin    Cal/Mol-Kelvin
 Total                  148.216             50.464            114.692
 Electronic               0.000              0.000              0.000
 Translational            0.889              2.981             41.504
 Rotational               0.889              2.981             31.095
 Vibrational            146.438             44.502             42.093
 Vibration     1          0.594              1.982              5.490
 Vibration     2          0.597              1.972              4.339
 Vibration     3          0.602              1.957              3.684
 Vibration     4          0.604              1.950              3.476
 Vibration     5          0.623              1.888              2.518
 Vibration     6          0.632              1.859              2.268
 Vibration     7          0.642              1.827              2.051
 Vibration     8          0.656              1.783              1.822
 Vibration     9          0.669              1.745              1.657
 Vibration    10          0.671              1.738              1.631
 Vibration    11          0.687              1.690              1.465
 Vibration    12          0.692              1.675              1.420
 Vibration    13          0.717              1.604              1.231
 Vibration    14          0.729              1.570              1.155
 Vibration    15          0.775              1.447              0.923
 Vibration    16          0.785              1.420              0.882
 Vibration    17          0.796              1.393              0.841
 Vibration    18          0.803              1.376              0.816
 Vibration    19          0.851              1.261              0.670
 Vibration    20          0.907              1.136              0.541
 Vibration    21          0.967              1.014              0.435

 Optimization completed.
    -- Stationary point found.
 Normal termination of Gaussian 16 at Wed Sep 27 12:27:59 2023.
