 Gaussian 16, Revision C.01,
 Gaussian 16:  ES64L-G16RevC.01  3-Jul-2019

 ----------------------------------------------------------------------
 # irc=(forward,calcfc,maxpoints=20,maxcycles=100) wb97xd/def2tzvpp geo
 m=connectivity
 ----------------------------------------------------------------------

 IRC Attempt EGOH on deprotonated axial silicic acid trig bypryamid TS
 Deprotonated
 ----------------------------------------------------------------------
 Symbolic Z-matrix:
 Charge = -1 Multiplicity = 1

 SCF Done:  E(RwB97XD) =  -822.729097238     A.U. after   15 cycles
 SCF Done:  E(RwB97XD) =  -822.729163339     A.U. after   11 cycles
 SCF Done:  E(RwB97XD) =  -822.729163914     A.U. after    9 cycles
 SCF Done:  E(RwB97XD) =  -822.729361664     A.U. after   11 cycles
 SCF Done:  E(RwB97XD) =  -822.729362706     A.U. after    9 cycles
 SCF Done:  E(RwB97XD) =  -822.729701290     A.U. after   11 cycles
 SCF Done:  E(RwB97XD) =  -822.730202771     A.U. after   11 cycles
 SCF Done:  E(RwB97XD) =  -822.730870943     A.U. after   11 cycles
 SCF Done:  E(RwB97XD) =  -822.731712447     A.U. after   11 cycles
 SCF Done:  E(RwB97XD) =  -822.732745350     A.U. after   11 cycles
 SCF Done:  E(RwB97XD) =  -822.747887062     A.U. after   11 cycles
 SCF Done:  E(RwB97XD) =  -822.747889447     A.U. after    9 cycles
 SCF Done:  E(RwB97XD) =  -822.750481341     A.U. after   11 cycles
 SCF Done:  E(RwB97XD) =  -822.753151828     A.U. after   12 cycles
 SCF Done:  E(RwB97XD) =  -822.755848338     A.U. after   11 cycles
 SCF Done:  E(RwB97XD) =  -822.755852718     A.U. after    9 cycles
 SCF Done:  E(RwB97XD) =  -822.755853777     A.U. after    9 cycles
 SCF Done:  E(RwB97XD) =  -822.755855805     A.U. after    9 cycles
 SCF Done:  E(RwB97XD) =  -822.758552007     A.U. after   11 cycles
 SCF Done:  E(RwB97XD) =  -822.761171470     A.U. after   11 cycles

                          Input orientation:
 ---------------------------------------------------------------------
 Center     Atomic      Atomic             Coordinates (Angstroms)
 Number     Number       Type             X           Y           Z
 ---------------------------------------------------------------------
      1         14           0        1.149907   -0.241484   -0.067604
      2          8           0        1.749324   -1.495260   -0.732566
      3          8           0        2.210358    1.292594    0.300298
      4          1           0        3.126163    1.173260    0.060023
      5          8           0        0.272592    0.820079   -1.077917
      6          1           0        0.810633    1.612699   -1.011701
      7          8           0        0.719215   -0.228609    1.553493
      8          1           0        1.261456    0.476726    1.909357
      9          6           0       -2.042044   -0.731820    0.701589
     10          1           0       -1.748605   -0.915653    1.734069
     11          1           0       -2.980908   -1.261421    0.494073
     12          6           0       -2.235475    0.763879    0.476335
     13          1           0       -1.408959    1.303119    0.946521
     14          1           0       -3.168043    1.075035    0.958456
     15          8           0       -1.013589   -1.278287   -0.097750
     16          8           0       -2.317207    1.072567   -0.893233
     17          1           0       -1.380528    1.081672   -1.180282
     18          1           0       -1.231748   -1.137644   -1.021021
 ---------------------------------------------------------------------

 Alpha  occ. eigenvalues --  -66.10576 -19.12576 -19.09877 -19.07651 -19.06299
 Alpha  occ. eigenvalues --  -19.05220 -18.96637 -10.19774 -10.19300  -5.22113
 Alpha  occ. eigenvalues --   -3.56884  -3.56581  -3.56296  -1.01202  -0.97662
 Alpha  occ. eigenvalues --   -0.94675  -0.92014  -0.88009  -0.78238  -0.70370
 Alpha  occ. eigenvalues --   -0.58414  -0.48585  -0.47309  -0.44691  -0.42541
 Alpha  occ. eigenvalues --   -0.41763  -0.40292  -0.37846  -0.36098  -0.33170
 Alpha  occ. eigenvalues --   -0.30639  -0.30359  -0.28141  -0.26949  -0.25765
 Alpha  occ. eigenvalues --   -0.24147  -0.23758  -0.21712  -0.20747  -0.20509
 Alpha  occ. eigenvalues --   -0.15211  -0.14751
 Alpha virt. eigenvalues --    0.23439   0.25228   0.26227   0.28533   0.29389
 Alpha virt. eigenvalues --    0.31231   0.32237   0.33273   0.33330   0.36408
 Alpha virt. eigenvalues --    0.36496   0.38642   0.39201   0.40590   0.41154

 Mulliken charges:
               1
     1  Si   0.805430
     2  O   -0.722044
     3  O   -0.635544
     4  H    0.162226
     5  O   -0.477062
     6  H    0.186327
     7  O   -0.466267
     8  H    0.175510
     9  C    0.065432
    10  H    0.052598
    11  H    0.054336
    12  C    0.048099
    13  H    0.069108
    14  H    0.039508
    15  O   -0.292653
    16  O   -0.463636
    17  H    0.229267
    18  H    0.169365
 Sum of Mulliken charges =  -1.00000

 Dipole moment (field-independent basis, Debye):
    X=             -3.7456    Y=              3.0756    Z=              1.8538  Tot=              5.1890
 Quadrupole moment (field-independent basis, Debye-Ang):
   XX=            -77.1120   YY=            -76.2088   ZZ=            -67.4754
   XY=             11.5773   XZ=             -0.7936   YZ=             -0.7597

  Exact polarizability:       0.000       0.000       0.000       0.000       0.000       0.000
 Approx polarizability:      82.447       0.585      79.083      -1.256       1.903      79.208

 Normal termination of Gaussian 16 at Sun Oct 15 01:21:51 2023.
