 Gaussian 16, Revision C.01,
 Gaussian 16:  ES64L-G16RevC.01  3-Jul-2019

 ----------------------------------------------------------------------
 # irc=(reverse,calcfc,maxpoints=100,maxcycle=100) wb97xd/def2tzvpp geo
 m=connectivity
 ----------------------------------------------------------------------

 Take TS opt from hydroxyl loss of HbiL2moL collapse deprotonated and r
 eprotonate free ligand hydroxyl
 ----------------------------------------------------------------------
 Symbolic Z-matrix:
 Charge = -2 Multiplicity = 1

 SCF Done:  E(RwB97XD) =  -1053.30201174     A.U. after   16 cycles
 SCF Done:  E(RwB97XD) =  -1053.30203280     A.U. after   13 cycles
 SCF Done:  E(RwB97XD) =  -1053.30203314     A.U. after   10 cycles

                          Input orientation:
 ---------------------------------------------------------------------
 Center     Atomic      Atomic             Coordinates (Angstroms)
 Number     Number       Type             X           Y           Z
 ---------------------------------------------------------------------
      1         14           0        0.340518   -0.028644    0.074394
      2          8           0        0.188354    1.126138   -1.207497
      3          8           0        1.073642   -0.996109    1.308912
      4          8           0        0.736688   -1.263894   -1.084988
      5          8           0       -1.336114   -0.440708    0.290259
      6          8           0       -3.823546    0.333138    0.573750
      7          8           0        0.417174    1.286314    1.210994
      8          6           0       -3.577882   -0.784139   -0.254330
      9          1           0       -4.305665   -0.779679   -1.074108
     10          1           0       -3.713414   -1.713606    0.320186
     11          6           0       -2.152125   -0.723681   -0.790293
     12          1           0       -2.076119    0.062693   -1.554944
     13          1           0       -1.890094   -1.676883   -1.272627
     14          6           0        0.268978    2.535370    0.635847
     15          1           0       -0.780968    2.886381    0.713492
     16          1           0        0.905435    3.274360    1.147613
     17          6           0        0.664420    2.380166   -0.831942
     18          1           0        0.212794    3.166818   -1.458419
     19          1           0        1.761599    2.387470   -0.912315
     20          6           0        1.797510   -2.050120   -0.642544
     21          1           0        1.792516   -3.027794   -1.153087
     22          1           0        2.745330   -1.517408   -0.810414
     23          6           0        1.581117   -2.203386    0.863014
     24          1           0        0.868447   -3.028769    1.067295
     25          1           0        2.524032   -2.438918    1.380454
     26          8           0        3.323825    0.715145   -0.325528
     27          1           0        3.120133    0.690257    0.610988
     28          1           0       -2.935884    0.520258    0.921599
 ---------------------------------------------------------------------

 Alpha  occ. eigenvalues --  -66.00712 -19.01336 -18.95325 -18.92606 -18.92460
 Alpha  occ. eigenvalues --  -18.92094 -18.91958 -18.78616 -10.10021 -10.07394
 Alpha  occ. eigenvalues --  -10.04757 -10.04753 -10.03106 -10.03083  -5.11621
 Alpha  occ. eigenvalues --   -3.46384  -3.46102  -3.45980  -0.89832  -0.84908
 Alpha  occ. eigenvalues --   -0.82153  -0.81840  -0.77857  -0.76220  -0.60109
 Alpha  occ. eigenvalues --   -0.58593  -0.54038  -0.51795  -0.46320  -0.42001
 Alpha  occ. eigenvalues --   -0.39531  -0.36552  -0.34173  -0.32220  -0.30908
 Alpha  occ. eigenvalues --   -0.29418  -0.28668  -0.28229  -0.28108  -0.25618
 Alpha  occ. eigenvalues --   -0.24742  -0.23078  -0.22200  -0.20533  -0.19648
 Alpha  occ. eigenvalues --   -0.19005  -0.17236  -0.14885  -0.12356  -0.11272
 Alpha  occ. eigenvalues --   -0.10480  -0.10103  -0.09095  -0.08534  -0.07961
 Alpha  occ. eigenvalues --   -0.07747  -0.05237  -0.05062  -0.02964   0.05052
 Alpha  occ. eigenvalues --    0.05397
 Alpha virt. eigenvalues --    0.33377   0.35627   0.36399   0.37391   0.38542
 Alpha virt. eigenvalues --    0.39429   0.40388   0.40880   0.41682   0.41864
 Alpha virt. eigenvalues --    0.43234   0.43905   0.45840   0.46316   0.46857

 Mulliken charges:
               1
     1  Si   0.759713
     2  O   -0.459761
     3  O   -0.441966
     4  O   -0.485539
     5  O   -0.436326
     6  O   -0.449533
     7  O   -0.458679
     8  C    0.104484
     9  H    0.003725
    10  H    0.010196
    11  C    0.064653
    12  H    0.038076
    13  H    0.014237
    14  C    0.061011
    15  H   -0.029821
    16  H   -0.007452
    17  C    0.133307
    18  H   -0.038376
    19  H    0.018040
    20  C    0.132696
    21  H   -0.041855
    22  H    0.018795
    23  C    0.069535
    24  H   -0.032096
    25  H   -0.005702
    26  O   -0.894954
    27  H    0.123472
    28  H    0.230119
 Sum of Mulliken charges =  -2.00000

 Dipole moment (field-independent basis, Debye):
    X=             -8.9550    Y=             -2.5894    Z=              0.3674  Tot=              9.3291
 Quadrupole moment (field-independent basis, Debye-Ang):
   XX=           -166.8378   YY=           -112.0697   ZZ=           -111.4954
   XY=             -4.8923   XZ=              9.0771   YZ=              1.3563

  Exact polarizability:       0.000       0.000       0.000       0.000       0.000       0.000
 Approx polarizability:     135.315      -2.401     145.303       3.012       1.485     132.032

 Normal termination of Gaussian 16 at Tue Mar 26 07:47:30 2024.
