 Gaussian 16, Revision C.01,
 Gaussian 16:  ES64L-G16RevC.01  3-Jul-2019

 ---------------------------------------------
 # opt freq wb97xd/def2tzvpp geom=connectivity
 ---------------------------------------------

 ----------------------------
 IRC for EGOdep attack on QL2
 ----------------------------
 Symbolic Z-matrix:
 Charge = -1 Multiplicity = 1

 SCF Done:  E(RwB97XD) =  -900.182764671     A.U. after   15 cycles
 SCF Done:  E(RwB97XD) =  -900.180777256     A.U. after   16 cycles
 SCF Done:  E(RwB97XD) =  -900.181841202     A.U. after   14 cycles
 SCF Done:  E(RwB97XD) =  -900.183293805     A.U. after   11 cycles
 SCF Done:  E(RwB97XD) =  -900.183326834     A.U. after   14 cycles
 SCF Done:  E(RwB97XD) =  -900.183949259     A.U. after   14 cycles
 SCF Done:  E(RwB97XD) =  -900.184100719     A.U. after   13 cycles
 SCF Done:  E(RwB97XD) =  -900.182794974     A.U. after   15 cycles
 SCF Done:  E(RwB97XD) =  -900.184455912     A.U. after   13 cycles
 SCF Done:  E(RwB97XD) =  -900.185001019     A.U. after   12 cycles
 SCF Done:  E(RwB97XD) =  -900.212341514     A.U. after    7 cycles
 SCF Done:  E(RwB97XD) =  -900.212342149     A.U. after    8 cycles
 SCF Done:  E(RwB97XD) =  -900.212343189     A.U. after    8 cycles
 SCF Done:  E(RwB97XD) =  -900.212344985     A.U. after    8 cycles
 SCF Done:  E(RwB97XD) =  -900.212346591     A.U. after    8 cycles
 SCF Done:  E(RwB97XD) =  -900.212347181     A.U. after    8 cycles
 SCF Done:  E(RwB97XD) =  -900.212347292     A.U. after    7 cycles
 SCF Done:  E(RwB97XD) =  -900.212347311     A.U. after    7 cycles
 SCF Done:  E(RwB97XD) =  -900.212347321     A.U. after    6 cycles
 Optimization completed.
    -- Stationary point found.
 Normal termination of Gaussian 16 at Wed Mar 20 18:55:41 2024.

 ----------------------------------------------------------------------
 #N Geom=AllCheck Guess=TCheck SCRF=Check GenChk RwB97XD/def2TZVPP Freq
 ----------------------------------------------------------------------

 Structure from the checkpoint file:  "IRC_EGdepattackQbiL_ReactantOpt.chk"
 ----------------------------
 IRC for EGOdep attack on QL2
 ----------------------------
 Charge = -1 Multiplicity = 1

                         Standard orientation:
 ---------------------------------------------------------------------
 Center     Atomic      Atomic             Coordinates (Angstroms)
 Number     Number       Type             X           Y           Z
 ---------------------------------------------------------------------
      1         14           0       -1.034469   -0.738288    0.142839
      2          8           0       -1.058406    0.237274   -1.238751
      3          8           0       -1.793116   -2.150271   -0.279487
      4          1           0       -2.580897   -1.999886   -0.796267
      5          8           0        0.334365   -0.969504    0.841749
      6          8           0       -2.123698    0.233073    0.994724
      7          6           0        2.458586    1.132484   -0.233649
      8          1           0        3.080277    2.025739   -0.364671
      9          1           0        1.800495    1.046389   -1.110880
     10          6           0        3.370452   -0.088602   -0.198319
     11          1           0        3.928189   -0.057375    0.751820
     12          1           0        4.103455    0.003019   -1.010411
     13          8           0        1.715253    1.317338    0.941988
     14          1           0        1.146146    0.516895    1.044638
     15          8           0        2.716375   -1.313474   -0.367083
     16          1           0        1.846154   -1.286092    0.095064
     17          6           0       -2.495337    1.360906    0.249782
     18          1           0       -2.540944    2.243593    0.895720
     19          1           0       -3.492620    1.211424   -0.191067
     20          6           0       -1.448670    1.534377   -0.860613
     21          1           0       -1.858711    2.067927   -1.723542
     22          1           0       -0.585350    2.093926   -0.478469
 ---------------------------------------------------------------------

 SCF Done:  E(RwB97XD) =  -900.212347321     A.U. after    1 cycles

 The electronic state is 1-A.
 Alpha  occ. eigenvalues --  -66.12257 -19.09788 -19.09496 -19.09409 -19.07545
 Alpha  occ. eigenvalues --  -19.07050 -19.01182 -10.20594 -10.20138 -10.17806
 Alpha  occ. eigenvalues --  -10.17782  -5.24125  -3.58774  -3.58655  -3.58373
 Alpha  occ. eigenvalues --   -1.00265  -0.96662  -0.95243  -0.94334  -0.94141
 Alpha  occ. eigenvalues --   -0.83586  -0.69334  -0.67763  -0.57427  -0.56180
 Alpha  occ. eigenvalues --   -0.48458  -0.45804  -0.44920  -0.44449  -0.43809
 Alpha  occ. eigenvalues --   -0.42381  -0.39799  -0.38021  -0.36838  -0.34671
 Alpha  occ. eigenvalues --   -0.33485  -0.31832  -0.30154  -0.29222  -0.27975
 Alpha  occ. eigenvalues --   -0.26860  -0.26562  -0.24681  -0.23283  -0.22775
 Alpha  occ. eigenvalues --   -0.20709  -0.19236  -0.19118  -0.18379
 Alpha virt. eigenvalues --    0.22496   0.24482   0.25436   0.27283   0.28085
 Alpha virt. eigenvalues --    0.29123   0.30128   0.31162   0.31942   0.32495
 Alpha virt. eigenvalues --    0.33013   0.33988   0.35244   0.36943   0.37652

 Mulliken charges:
               1
     1  Si   0.762318
     2  O   -0.439739
     3  O   -0.428059
     4  H    0.146699
     5  O   -0.708232
     6  O   -0.434351
     7  C    0.042013
     8  H    0.030559
     9  H    0.046185
    10  C    0.094959
    11  H    0.020511
    12  H    0.011311
    13  O   -0.455997
    14  H    0.239848
    15  O   -0.450702
    16  H    0.242829
    17  C    0.097626
    18  H    0.032389
    19  H    0.020474
    20  C    0.038488
    21  H    0.035926
    22  H    0.054945
 Sum of Mulliken charges =  -1.00000

 Dipole moment (field-independent basis, Debye):
    X=             -3.3657    Y=              3.7317    Z=             -2.6406  Tot=              5.6768
 Quadrupole moment (field-independent basis, Debye-Ang):
   XX=            -88.4039   YY=            -87.2734   ZZ=            -83.1486
   XY=              2.0386   XZ=              2.3534   YZ=             -1.6252

  Exact polarizability:     109.429      -0.556      97.293      -0.006      -1.438      82.890
 Approx polarizability:     102.254       0.621     101.564       0.731      -0.329      95.331

                      1                      2                      3
                      A                      A                      A
 Frequencies --     32.6722                47.1949                56.5501
 Red. masses --      5.7680                 5.9367                 4.3380
 Frc consts  --      0.0036                 0.0078                 0.0082
 IR Inten    --      0.7348                 2.1337                 2.0483

                      4                      5                      6
                      A                      A                      A
 Frequencies --     75.9694                94.6965               134.7440
 Red. masses --      3.5459                 3.7208                 3.2094
 Frc consts  --      0.0121                 0.0197                 0.0343
 IR Inten    --      9.0595                 1.5579                 3.8884

                      7                      8                      9
                      A                      A                      A
 Frequencies --    171.0239               195.5971               220.0299
 Red. masses --      2.6671                 4.3355                 1.9216
 Frc consts  --      0.0460                 0.0977                 0.0548
 IR Inten    --     43.0828                10.1670                11.0302

                     10                     11                     12
                      A                      A                      A
 Frequencies --    245.8530               325.5780               337.2304
 Red. masses --      3.0726                 2.3528                 5.4054
 Frc consts  --      0.1094                 0.1469                 0.3622
 IR Inten    --      7.0691                25.7765                 5.2438

                     13                     14                     15
                      A                      A                      A
 Frequencies --    365.1378               392.7795               401.8824
 Red. masses --      3.7505                 8.3595                 7.8737
 Frc consts  --      0.2946                 0.7599                 0.7493
 IR Inten    --      5.2377                47.8139                70.3017

                     16                     17                     18
                      A                      A                      A
 Frequencies --    516.3898               522.0760               614.8433
 Red. masses --      2.2751                11.6770                 2.9574
 Frc consts  --      0.3574                 1.8752                 0.6587
 IR Inten    --      3.8303                18.3389                 0.7811

                     19                     20                     21
                      A                      A                      A
 Frequencies --    733.5599               744.1354               823.3349
 Red. masses --     10.1817                 5.2613                 1.0667
 Frc consts  --      3.2281                 1.7165                 0.4260
 IR Inten    --     21.1501               149.5860                52.8897

                     22                     23                     24
                      A                      A                      A
 Frequencies --    860.4713               869.2528               901.0746
 Red. masses --      2.5501                 4.5276                 1.4235
 Frc consts  --      1.1124                 2.0156                 0.6810
 IR Inten    --     12.3983               150.6303               198.6498

                     25                     26                     27
                      A                      A                      A
 Frequencies --    908.3246               920.7804               928.3283
 Red. masses --      1.5808                 1.5933                 2.5098
 Frc consts  --      0.7684                 0.7959                 1.2743
 IR Inten    --     84.4107                22.5206                12.3814

                     28                     29                     30
                      A                      A                      A
 Frequencies --    944.4810              1111.8739              1129.4236
 Red. masses --      1.2593                 2.3833                 4.5311
 Frc consts  --      0.6619                 1.7359                 3.4054
 IR Inten    --    112.6796                23.6299                34.2228

                     31                     32                     33
                      A                      A                      A
 Frequencies --   1134.9777              1139.2175              1142.4774
 Red. masses --      3.8860                 4.0702                 9.1319
 Frc consts  --      2.9493                 3.1123                 7.0227
 IR Inten    --     96.5030                84.1667               543.7508

                     34                     35                     36
                      A                      A                      A
 Frequencies --   1164.3848              1168.0003              1261.1880
 Red. masses --      3.8640                 2.1956                 1.1372
 Frc consts  --      3.0866                 1.7648                 1.0658
 IR Inten    --     67.8325                48.1538                 5.8184

                     37                     38                     39
                      A                      A                      A
 Frequencies --   1264.8268              1271.8344              1296.0695
 Red. masses --      1.1201                 1.1588                 1.0762
 Frc consts  --      1.0558                 1.1043                 1.0651
 IR Inten    --      4.0457                 5.8356                 4.0562

                     40                     41                     42
                      A                      A                      A
 Frequencies --   1384.9431              1389.2435              1403.4633
 Red. masses --      1.2864                 1.2962                 1.2851
 Frc consts  --      1.4538                 1.4739                 1.4913
 IR Inten    --      4.1341                 1.6042                 3.2433

                     43                     44                     45
                      A                      A                      A
 Frequencies --   1414.2550              1491.8304              1498.3981
 Red. masses --      1.3280                 1.0904                 1.1097
 Frc consts  --      1.5650                 1.4298                 1.4680
 IR Inten    --     14.5992                 0.4124                 2.3824

                     46                     47                     48
                      A                      A                      A
 Frequencies --   1506.0949              1517.8813              1524.3204
 Red. masses --      1.1314                 1.0869                 1.0902
 Frc consts  --      1.5121                 1.4754                 1.4924
 IR Inten    --     75.2079                 0.8713                 1.2439

                     49                     50                     51
                      A                      A                      A
 Frequencies --   1566.9083              2946.4989              2957.4104
 Red. masses --      1.1294                 1.0672                 1.0711
 Frc consts  --      1.6338                 5.4589                 5.5197
 IR Inten    --     13.9434               136.0459               122.4002

                     52                     53                     54
                      A                      A                      A
 Frequencies --   2977.9480              3002.7997              3009.5720
 Red. masses --      1.0616                 1.0618                 1.0940
 Frc consts  --      5.5467                 5.6408                 5.8384
 IR Inten    --     43.4201                38.2758               147.2487

                     55                     56                     57
                      A                      A                      A
 Frequencies --   3035.8636              3041.5940              3057.5478
 Red. masses --      1.0988                 1.0878                 1.1060
 Frc consts  --      5.9669                 5.9291                 6.0918
 IR Inten    --    148.5014               116.5407                79.6152

                     58                     59                     60
                      A                      A                      A
 Frequencies --   3283.8743              3382.9532              3972.8218
 Red. masses --      1.0723                 1.0708                 1.0656
 Frc consts  --      6.8131                 7.2202                 9.9089
 IR Inten    --    264.0681              1695.0949                26.5894

 - Thermochemistry -
 -------------------
 Temperature   298.150 Kelvin.  Pressure   1.00000 Atm.
 Atom     1 has atomic number 14 and mass  27.97693

 Molecular mass:   183.03249 amu.
 Principal axes and moments of inertia in atomic units:
                           1         2         3
     Eigenvalues --  1224.305352913.056383499.31493
           X            0.99997  -0.00727   0.00151
           Y            0.00729   0.99983  -0.01721
           Z           -0.00139   0.01722   0.99985
 This molecule is an asymmetric top.
 Rotational symmetry number  1.
 Warning -- assumption of classical behavior for rotation
           may cause significant error
 Rotational temperatures (Kelvin)      0.07075     0.02973     0.02475
 Rotational constants (GHZ):           1.47409     0.61954     0.51574
 Zero-point vibrational energy     453591.0 (Joules/Mol)
                                  108.41084 (Kcal/Mol)
 Warning -- explicit consideration of  18 degrees of freedom as
           vibrations may cause significant error
 Vibrational temperatures:     47.01    67.90    81.36   109.30   136.25
          (Kelvin)            193.87   246.07   281.42   316.57   353.73
                              468.43   485.20   525.35   565.12   578.22
                              742.97   751.15   884.62  1055.43  1070.64
                             1184.60  1238.03  1250.66  1296.45  1306.88
                             1324.80  1335.66  1358.90  1599.74  1624.99
                             1632.98  1639.08  1643.77  1675.29  1680.49
                             1814.57  1819.80  1829.89  1864.75  1992.62
                             1998.81  2019.27  2034.80  2146.41  2155.86
                             2166.93  2183.89  2193.16  2254.43  4239.35
                             4255.05  4284.60  4320.36  4330.10  4367.93
                             4376.18  4399.13  4724.76  4867.32  5716.00

 Zero-point correction=                           0.172764 (Hartree/Particle)
 Thermal correction to Energy=                    0.185728
 Thermal correction to Enthalpy=                  0.186672
 Thermal correction to Gibbs Free Energy=         0.131629
 Sum of electronic and zero-point Energies=           -900.039584
 Sum of electronic and thermal Energies=              -900.026620
 Sum of electronic and thermal Enthalpies=            -900.025675
 Sum of electronic and thermal Free Energies=         -900.080718

                     E (Thermal)             CV                S
                      KCal/Mol        Cal/Mol-Kelvin    Cal/Mol-Kelvin
 Total                  116.546             44.992            115.847
 Electronic               0.000              0.000              0.000
 Translational            0.889              2.981             41.520
 Rotational               0.889              2.981             30.902
 Vibrational            114.768             39.030             43.426
 Vibration     1          0.594              1.983              5.660
 Vibration     2          0.595              1.979              4.932
 Vibration     3          0.596              1.975              4.574
 Vibration     4          0.599              1.965              3.992
 Vibration     5          0.603              1.953              3.561
 Vibration     6          0.613              1.919              2.877
 Vibration     7          0.626              1.878              2.424
 Vibration     8          0.636              1.846              2.174
 Vibration     9          0.647              1.811              1.959
 Vibration    10          0.660              1.770              1.760
 Vibration    11          0.710              1.624              1.282
 Vibration    12          0.718              1.601              1.225
 Vibration    13          0.738              1.544              1.100
 Vibration    14          0.760              1.486              0.990
 Vibration    15          0.767              1.466              0.956
 Vibration    16          0.871              1.214              0.618
 Vibration    17          0.877              1.201              0.605
 Vibration    18          0.974              1.000              0.425

 Optimization completed.
    -- Stationary point found.
 Normal termination of Gaussian 16 at Wed Mar 20 20:12:57 2024.
