 Gaussian 16, Revision C.01,
 Gaussian 16:  ES64L-G16RevC.01  3-Jul-2019

 ---------------------------------------------
 # opt freq wb97xd/def2tzvpp geom=connectivity
 ---------------------------------------------

 ---------------
 title card here
 ---------------
 Symbolic Z-matrix:
 Charge = -1 Multiplicity = 1

 SCF Done:  E(RwB97XD) =  -746.355105862     A.U. after   14 cycles
 SCF Done:  E(RwB97XD) =  -746.355882379     A.U. after   12 cycles
 SCF Done:  E(RwB97XD) =  -746.356299402     A.U. after   12 cycles
 SCF Done:  E(RwB97XD) =  -746.356429030     A.U. after   11 cycles
 SCF Done:  E(RwB97XD) =  -746.356454318     A.U. after    9 cycles
 SCF Done:  E(RwB97XD) =  -746.356465247     A.U. after    9 cycles
 SCF Done:  E(RwB97XD) =  -746.356469482     A.U. after    9 cycles
 SCF Done:  E(RwB97XD) =  -746.356476401     A.U. after   10 cycles
 SCF Done:  E(RwB97XD) =  -746.356483390     A.U. after   10 cycles
 SCF Done:  E(RwB97XD) =  -746.356487409     A.U. after    9 cycles
 SCF Done:  E(RwB97XD) =  -746.356489800     A.U. after    9 cycles
 SCF Done:  E(RwB97XD) =  -746.356491220     A.U. after    8 cycles
 SCF Done:  E(RwB97XD) =  -746.356493015     A.U. after    9 cycles
 SCF Done:  E(RwB97XD) =  -746.356495562     A.U. after   10 cycles
 SCF Done:  E(RwB97XD) =  -746.356497704     A.U. after    9 cycles
 SCF Done:  E(RwB97XD) =  -746.356498568     A.U. after    9 cycles
 SCF Done:  E(RwB97XD) =  -746.356498720     A.U. after    7 cycles
 Optimization completed.
    -- Stationary point found.
 Normal termination of Gaussian 16 at Tue Mar 26 01:09:08 2024.

 ----------------------------------------------------------------------
 #N Geom=AllCheck Guess=TCheck SCRF=Check GenChk RwB97XD/def2TZVPP Freq
 ----------------------------------------------------------------------

 Structure from the checkpoint file:  "QL_MonoToBi_DeprotonatedLigandAttacking_IRC_reverse_productOpt.chk"
 ---------------
 title card here
 ---------------
 Charge = -1 Multiplicity = 1

                         Standard orientation:
 ---------------------------------------------------------------------
 Center     Atomic      Atomic             Coordinates (Angstroms)
 Number     Number       Type             X           Y           Z
 ---------------------------------------------------------------------
      1         14           0        0.555410    0.038371    0.034311
      2          8           0        1.059155    0.098680    1.640708
      3          1           0        1.903974   -0.348181    1.658503
      4          8           0        1.045920    1.246373   -1.065660
      5          1           0        0.413154    1.957174   -0.980878
      6          8           0        1.923000   -0.939828   -0.428408
      7          1           0        2.322146   -0.551664   -1.201893
      8          8           0       -0.532704   -1.195470   -0.430640
      9          6           0       -1.866955   -0.973358   -0.103724
     10          1           0       -2.100226   -1.412573    0.878800
     11          1           0       -2.523791   -1.443630   -0.847198
     12          6           0       -2.054424    0.542764   -0.048780
     13          1           0       -2.261336    0.920018   -1.070143
     14          1           0       -2.918087    0.815846    0.575946
     15          8           0       -0.880783    1.053918    0.461692
 ---------------------------------------------------------------------

 SCF Done:  E(RwB97XD) =  -746.356498720     A.U. after    1 cycles

 The electronic state is 1-A.
 Alpha  occ. eigenvalues --  -66.11296 -19.05390 -19.04876 -19.04313 -19.03242
 Alpha  occ. eigenvalues --  -19.02385 -10.16580 -10.16384  -5.22372  -3.56962
 Alpha  occ. eigenvalues --   -3.56929  -3.56811  -0.95917  -0.91424  -0.89811
 Alpha  occ. eigenvalues --   -0.89090  -0.86370  -0.65249  -0.53236  -0.45686
 Alpha  occ. eigenvalues --   -0.41734  -0.40291  -0.40109  -0.39308  -0.35569
 Alpha  occ. eigenvalues --   -0.33087  -0.32164  -0.27385  -0.26656  -0.24435
 Alpha  occ. eigenvalues --   -0.23316  -0.21931  -0.21513  -0.19921  -0.18698
 Alpha  occ. eigenvalues --   -0.18282  -0.15865
 Alpha virt. eigenvalues --    0.25759   0.27062   0.28566   0.30446   0.31716
 Alpha virt. eigenvalues --    0.32340   0.33987   0.35132   0.37854   0.39042
 Alpha virt. eigenvalues --    0.40201   0.41812   0.43312   0.45177   0.45729

 Mulliken charges:
               1
     1  Si   0.832812
     2  O   -0.440881
     3  H    0.152948
     4  O   -0.489228
     5  H    0.151566
     6  O   -0.581967
     7  H    0.148486
     8  O   -0.407256
     9  C    0.085818
    10  H    0.016994
    11  H    0.008616
    12  C    0.069411
    13  H   -0.008113
    14  H    0.005388
    15  O   -0.544594
 Sum of Mulliken charges =  -1.00000

 Dipole moment (field-independent basis, Debye):
    X=             -2.1197    Y=              0.3826    Z=             -0.9740  Tot=              2.3639
 Quadrupole moment (field-independent basis, Debye-Ang):
   XX=            -61.8696   YY=            -64.3126   ZZ=            -62.5125
   XY=              1.3133   XZ=              1.3707   YZ=             -3.2472

  Exact polarizability:      77.465       0.208      63.515       0.292      -1.661      62.940
 Approx polarizability:      74.285      -0.505      67.048      -0.271      -0.949      68.146

                      1                      2                      3
                      A                      A                      A
 Frequencies --     56.4979               130.8195               171.6778
 Red. masses --      3.4269                 3.1574                 3.7662
 Frc consts  --      0.0064                 0.0318                 0.0654
 IR Inten    --      9.7147                10.5815                 1.2961

                      4                      5                      6
                      A                      A                      A
 Frequencies --    226.6902               261.3770               360.2785
 Red. masses --      1.3989                 2.6653                 6.0587
 Frc consts  --      0.0424                 0.1073                 0.4633
 IR Inten    --     39.3623                10.8483                 4.2130

                      7                      8                      9
                      A                      A                      A
 Frequencies --    368.7222               388.7146               418.9764
 Red. masses --      4.2688                 4.3154                 5.2163
 Frc consts  --      0.3419                 0.3842                 0.5395
 IR Inten    --      3.6668                56.5268                21.4725

                     10                     11                     12
                      A                      A                      A
 Frequencies --    451.2826               528.1406               560.8088
 Red. masses --      8.1612                 2.5055                 1.2530
 Frc consts  --      0.9793                 0.4118                 0.2322
 IR Inten    --     19.0001                13.5083                66.9322

                     13                     14                     15
                      A                      A                      A
 Frequencies --    567.2658               640.7164               666.0718
 Red. masses --      1.5224                 2.5836                 8.2710
 Frc consts  --      0.2886                 0.6249                 2.1620
 IR Inten    --     75.0782                12.7580                73.0318

                     16                     17                     18
                      A                      A                      A
 Frequencies --    697.2310               795.8260               845.3581
 Red. masses --      8.6382                 7.4239                 7.1202
 Frc consts  --      2.4742                 2.7702                 2.9980
 IR Inten    --    201.8922               300.3184               234.1406

                     19                     20                     21
                      A                      A                      A
 Frequencies --    918.5697               936.9128               970.1330
 Red. masses --      1.7588                 2.3876                 1.2838
 Frc consts  --      0.8743                 1.2348                 0.7119
 IR Inten    --     27.5816                14.0811               184.8791

                     22                     23                     24
                      A                      A                      A
 Frequencies --   1000.1498              1049.0525              1152.7447
 Red. masses --      1.2105                 1.2848                 2.4491
 Frc consts  --      0.7134                 0.8331                 1.9174
 IR Inten    --    139.1772               292.3642                83.6972

                     25                     26                     27
                      A                      A                      A
 Frequencies --   1171.6162              1187.0340              1259.2145
 Red. masses --      3.8756                 3.6857                 1.1750
 Frc consts  --      3.1344                 3.0598                 1.0977
 IR Inten    --     32.2489               157.2980                 9.2673

                     28                     29                     30
                      A                      A                      A
 Frequencies --   1265.2080              1381.7329              1396.4309
 Red. masses --      1.1871                 1.3224                 1.3296
 Frc consts  --      1.1196                 1.4875                 1.5276
 IR Inten    --     14.2333                 8.9357                10.5958

                     31                     32                     33
                      A                      A                      A
 Frequencies --   1510.9266              1518.2033              2865.7629
 Red. masses --      1.0883                 1.0956                 1.0743
 Frc consts  --      1.4638                 1.4878                 5.1983
 IR Inten    --      0.3747                 5.2445               158.3045

                     34                     35                     36
                      A                      A                      A
 Frequencies --   2945.4177              2972.6332              3001.7258
 Red. masses --      1.0678                 1.0800                 1.0960
 Frc consts  --      5.4581                 5.6229                 5.8185
 IR Inten    --     68.4914               244.8811               142.3478

                     37                     38                     39
                      A                      A                      A
 Frequencies --   3940.7149              3941.8597              3979.4632
 Red. masses --      1.0645                 1.0647                 1.0654
 Frc consts  --      9.7393                 9.7473                 9.9404
 IR Inten    --     37.7036                 3.4768                17.1598

 - Thermochemistry -
 -------------------
 Temperature   298.150 Kelvin.  Pressure   1.00000 Atm.
 Atom     1 has atomic number 14 and mass  27.97693

 Molecular mass:   139.00628 amu.
 Principal axes and moments of inertia in atomic units:
                           1         2         3
     Eigenvalues --   655.351041160.648141254.00822
           X            0.99995   0.00772   0.00552
           Y           -0.00719   0.99593  -0.08990
           Z           -0.00619   0.08985   0.99594
 This molecule is an asymmetric top.
 Rotational symmetry number  1.
 Warning -- assumption of classical behavior for rotation
           may cause significant error
 Rotational temperatures (Kelvin)      0.13216     0.07463     0.06907
 Rotational constants (GHZ):           2.75385     1.55494     1.43918
 Zero-point vibrational energy     290106.2 (Joules/Mol)
                                   69.33703 (Kcal/Mol)
 Warning -- explicit consideration of  13 degrees of freedom as
           vibrations may cause significant error
 Vibrational temperatures:     81.29   188.22   247.01   326.16   376.06
          (Kelvin)            518.36   530.51   559.27   602.81   649.30
                              759.88   806.88   816.17   921.85   958.33
                             1003.16  1145.02  1216.28  1321.62  1348.01
                             1395.81  1438.99  1509.35  1658.54  1685.69
                             1707.88  1811.73  1820.35  1988.01  2009.15
                             2173.89  2184.36  4123.19  4237.80  4276.96
                             4318.81  5669.81  5671.46  5725.56

 Zero-point correction=                           0.110496 (Hartree/Particle)
 Thermal correction to Energy=                    0.119395
 Thermal correction to Enthalpy=                  0.120339
 Thermal correction to Gibbs Free Energy=         0.076974
 Sum of electronic and zero-point Energies=           -746.246003
 Sum of electronic and thermal Energies=              -746.237104
 Sum of electronic and thermal Enthalpies=            -746.236160
 Sum of electronic and thermal Free Energies=         -746.279525

                     E (Thermal)             CV                S
                      KCal/Mol        Cal/Mol-Kelvin    Cal/Mol-Kelvin
 Total                   74.921             33.387             91.269
 Electronic               0.000              0.000              0.000
 Translational            0.889              2.981             40.700
 Rotational               0.889              2.981             28.347
 Vibrational             73.144             27.425             22.223
 Vibration     1          0.596              1.975              4.576
 Vibration     2          0.612              1.923              2.934
 Vibration     3          0.626              1.877              2.417
 Vibration     4          0.650              1.800              1.905
 Vibration     5          0.669              1.743              1.653
 Vibration     6          0.735              1.554              1.121
 Vibration     7          0.741              1.537              1.085
 Vibration     8          0.757              1.494              1.005
 Vibration     9          0.782              1.429              0.895
 Vibration    10          0.810              1.358              0.792
 Vibration    11          0.883              1.188              0.591
 Vibration    12          0.916              1.116              0.522
 Vibration    13          0.923              1.102              0.510

                           ! Non-Optimized Parameters !
 Normal termination of Gaussian 16 at Tue Mar 26 01:37:34 2024.
