 Gaussian 16, Revision C.01,
 Gaussian 16:  ES64L-G16RevC.01  3-Jul-2019

 ---------------------------------------------
 # opt freq wb97xd/def2tzvpp geom=connectivity
 ---------------------------------------------

 --------------------------
 IRC P(=L)2(L) to H(=L)3 TS
 --------------------------
 Symbolic Z-matrix:
 Charge = -2 Multiplicity = 1

 SCF Done:  E(RwB97XD) =  -976.861315984     A.U. after   18 cycles
 SCF Done:  E(RwB97XD) =  -976.862191391     A.U. after   15 cycles
 SCF Done:  E(RwB97XD) =  -976.862612978     A.U. after   15 cycles
 SCF Done:  E(RwB97XD) =  -976.862923729     A.U. after   15 cycles
 SCF Done:  E(RwB97XD) =  -976.863531764     A.U. after   15 cycles
 SCF Done:  E(RwB97XD) =  -976.864323339     A.U. after   15 cycles
 SCF Done:  E(RwB97XD) =  -976.864760409     A.U. after   15 cycles
 SCF Done:  E(RwB97XD) =  -976.864863300     A.U. after   13 cycles
 SCF Done:  E(RwB97XD) =  -976.864914062     A.U. after   13 cycles
 SCF Done:  E(RwB97XD) =  -976.864940858     A.U. after   12 cycles
 SCF Done:  E(RwB97XD) =  -976.864974551     A.U. after   10 cycles
 SCF Done:  E(RwB97XD) =  -976.864976161     A.U. after   12 cycles
 SCF Done:  E(RwB97XD) =  -976.864977078     A.U. after   10 cycles
 SCF Done:  E(RwB97XD) =  -976.864977295     A.U. after   10 cycles
 SCF Done:  E(RwB97XD) =  -976.864978196     A.U. after   11 cycles
 SCF Done:  E(RwB97XD) =  -976.864978860     A.U. after    9 cycles
 SCF Done:  E(RwB97XD) =  -976.864979260     A.U. after    9 cycles
 SCF Done:  E(RwB97XD) =  -976.864979312     A.U. after    9 cycles
 SCF Done:  E(RwB97XD) =  -976.864979376     A.U. after    8 cycles
 Optimization completed.
    -- Stationary point found.
 Normal termination of Gaussian 16 at Tue Feb 13 03:32:53 2024.

 ----------------------------------------------------------------------
 #N Geom=AllCheck Guess=TCheck SCRF=Check GenChk RwB97XD/def2TZVPP Freq
 ----------------------------------------------------------------------

 Structure from the checkpoint file:  "PL3HL3_IRC_reverse_ReactantOpt.chk"
 --------------------------
 IRC P(=L)2(L) to H(=L)3 TS
 --------------------------
 Charge = -2 Multiplicity = 1

                         Standard orientation:
 ---------------------------------------------------------------------
 Center     Atomic      Atomic             Coordinates (Angstroms)
 Number     Number       Type             X           Y           Z
 ---------------------------------------------------------------------
      1         14           0        0.590013    0.273907    0.032676
      2          8           0       -0.297272    1.061531   -1.245304
      3          8           0        1.811855   -0.116689    1.253443
      4          8           0        1.862116    0.075922   -1.156830
      5          8           0       -0.279096   -1.135202    0.218233
      6          8           0       -3.368665   -0.620140    0.337651
      7          8           0        0.040541    1.487906    1.106730
      8          6           0       -2.697811   -1.743827    0.124460
      9          1           0       -3.240584   -2.498660   -0.552550
     10          1           0       -2.482914   -2.358732    1.054529
     11          6           0       -1.322514   -1.638571   -0.582577
     12          1           0       -1.449748   -1.022412   -1.480760
     13          1           0       -1.032162   -2.658447   -0.902263
     14          6           0       -1.244535    1.914404    0.746593
     15          1           0       -2.005221    1.228066    1.138391
     16          1           0       -1.420253    2.928127    1.137838
     17          6           0       -1.322737    1.881839   -0.795723
     18          1           0       -2.304338    1.488007   -1.089037
     19          1           0       -1.198769    2.895703   -1.222605
     20          6           0        3.046102   -0.452762   -0.683932
     21          1           0        3.409249   -1.265123   -1.335767
     22          1           0        3.836512    0.322153   -0.659334
     23          6           0        2.770246   -0.956913    0.739638
     24          1           0        2.413397   -2.002595    0.698081
     25          1           0        3.686315   -0.942433    1.353885
 ---------------------------------------------------------------------

 SCF Done:  E(RwB97XD) =  -976.864979376     A.U. after    1 cycles

 The electronic state is 1-A.
 Alpha  occ. eigenvalues --  -66.00316 -18.94637 -18.93408 -18.93123 -18.92351
 Alpha  occ. eigenvalues --  -18.92088 -18.81435 -10.07200 -10.06591 -10.03719
 Alpha  occ. eigenvalues --  -10.03274 -10.01502  -9.99803  -5.11367  -3.45987
 Alpha  occ. eigenvalues --   -3.45891  -3.45812  -0.85819  -0.82807  -0.79387
 Alpha  occ. eigenvalues --   -0.78824  -0.76829  -0.69505  -0.55805  -0.52222
 Alpha  occ. eigenvalues --   -0.49026  -0.43710  -0.39925  -0.36225  -0.33689
 Alpha  occ. eigenvalues --   -0.31835  -0.30319  -0.29461  -0.27447  -0.26561
 Alpha  occ. eigenvalues --   -0.24865  -0.23661  -0.22810  -0.22055  -0.20189
 Alpha  occ. eigenvalues --   -0.17993  -0.17543  -0.16421  -0.12137  -0.12044
 Alpha  occ. eigenvalues --   -0.11322  -0.10645  -0.10029  -0.09419  -0.08120
 Alpha  occ. eigenvalues --   -0.07048  -0.05808  -0.04941  -0.03868   0.04644
 Alpha  occ. eigenvalues --    0.04721
 Alpha virt. eigenvalues --    0.34172   0.37076   0.37788   0.38417   0.38747
 Alpha virt. eigenvalues --    0.40238   0.41325   0.43338   0.43569   0.44130
 Alpha virt. eigenvalues --    0.44523   0.46107   0.47527   0.47930   0.48445

 Mulliken charges:
               1
     1  Si   0.742678
     2  O   -0.497930
     3  O   -0.486647
     4  O   -0.446051
     5  O   -0.379373
     6  O   -0.758386
     7  O   -0.448407
     8  C    0.200204
     9  H   -0.177476
    10  H   -0.127870
    11  C    0.131181
    12  H    0.007869
    13  H   -0.054665
    14  C    0.060017
    15  H    0.060817
    16  H   -0.030800
    17  C    0.106999
    18  H    0.013970
    19  H   -0.033312
    20  C    0.113260
    21  H   -0.023409
    22  H   -0.023103
    23  C    0.068196
    24  H    0.000775
    25  H   -0.018539
 Sum of Mulliken charges =  -2.00000

 Dipole moment (field-independent basis, Debye):
    X=              8.3015    Y=              1.8457    Z=             -1.4067  Tot=              8.6198
 Quadrupole moment (field-independent basis, Debye-Ang):
   XX=           -149.7528   YY=           -108.1132   ZZ=           -106.8088
   XY=            -12.6191   XZ=              2.7979   YZ=              1.1743

  Exact polarizability:     140.451      -4.481     139.069       1.425       2.446     111.509
 Approx polarizability:     132.752      -6.751     139.174       1.271       3.344     124.376

                      1                      2                      3
                      A                      A                      A
 Frequencies --     42.7421                62.5043                93.5908
 Red. masses --      5.5719                 4.1804                 2.4873
 Frc consts  --      0.0060                 0.0096                 0.0128
 IR Inten    --      3.7935                 5.6409                 0.4521

                      4                      5                      6
                      A                      A                      A
 Frequencies --    105.3090               113.0877               136.1528
 Red. masses --      4.3187                 4.8607                 3.1096
 Frc consts  --      0.0282                 0.0366                 0.0340
 IR Inten    --     11.5971                13.7336                 4.8937

                      7                      8                      9
                      A                      A                      A
 Frequencies --    169.2775               202.0709               221.1165
 Red. masses --      2.6958                 2.7540                 4.2048
 Frc consts  --      0.0455                 0.0663                 0.1211
 IR Inten    --      5.2462                 2.6233                 2.4257

                     10                     11                     12
                      A                      A                      A
 Frequencies --    263.9472               289.6435               354.0801
 Red. masses --      3.9720                 2.9213                 6.3983
 Frc consts  --      0.1630                 0.1444                 0.4726
 IR Inten    --      3.7989                 0.5791                 0.4434

                     13                     14                     15
                      A                      A                      A
 Frequencies --    378.5727               403.7199               431.9921
 Red. masses --      6.1533                 6.6237                 7.6200
 Frc consts  --      0.5196                 0.6361                 0.8378
 IR Inten    --     22.2882                 0.5485                 6.7659

                     16                     17                     18
                      A                      A                      A
 Frequencies --    449.4350               521.5877               607.6414
 Red. masses --      4.1136                 3.1326                11.8721
 Frc consts  --      0.4896                 0.5021                 2.5827
 IR Inten    --     27.7933                17.2481                37.3996

                     19                     20                     21
                      A                      A                      A
 Frequencies --    642.8871               663.5383               667.9866
 Red. masses --      4.0495                 8.3735                 3.4693
 Frc consts  --      0.9861                 2.1721                 0.9121
 IR Inten    --     21.3702                69.4843                45.0903

                     22                     23                     24
                      A                      A                      A
 Frequencies --    728.6169               734.5732               776.2593
 Red. masses --      5.0927                 4.9696                 7.9264
 Frc consts  --      1.5929                 1.5799                 2.8141
 IR Inten    --    243.0506               188.3667               250.6943

                     25                     26                     27
                      A                      A                      A
 Frequencies --    860.4287               891.5870               917.3939
 Red. masses --      2.8925                 1.4413                 1.7515
 Frc consts  --      1.2617                 0.6750                 0.8685
 IR Inten    --    107.6307                 3.8031                35.7975

                     28                     29                     30
                      A                      A                      A
 Frequencies --    930.8691               946.0797               947.2137
 Red. masses --      2.4695                 2.6114                 2.2954
 Frc consts  --      1.2608                 1.3772                 1.2134
 IR Inten    --      9.0649                39.3255                52.0242

                     31                     32                     33
                      A                      A                      A
 Frequencies --   1111.3133              1134.3328              1146.7748
 Red. masses --      2.3865                 6.9947                 3.5948
 Frc consts  --      1.7365                 5.3027                 2.7854
 IR Inten    --     29.5990               200.6532               324.7712

                     34                     35                     36
                      A                      A                      A
 Frequencies --   1150.2568              1165.1751              1180.9340
 Red. masses --      5.0388                 2.5662                 2.2523
 Frc consts  --      3.9280                 2.0527                 1.8506
 IR Inten    --    103.1760                79.1179                71.4090

                     37                     38                     39
                      A                      A                      A
 Frequencies --   1186.0640              1204.3623              1223.0727
 Red. masses --      3.8637                 3.5261                 3.1186
 Frc consts  --      3.2024                 3.0134                 2.7486
 IR Inten    --     42.5114                40.3307               262.3724

                     40                     41                     42
                      A                      A                      A
 Frequencies --   1252.0712              1257.8050              1261.2630
 Red. masses --      1.2261                 1.1126                 1.2096
 Frc consts  --      1.1325                 1.0370                 1.1337
 IR Inten    --     14.6932                 5.9032                 6.9385

                     43                     44                     45
                      A                      A                      A
 Frequencies --   1265.6722              1286.4404              1322.0890
 Red. masses --      1.1062                 1.1610                 1.1797
 Frc consts  --      1.0441                 1.1320                 1.2150
 IR Inten    --      5.7199                 5.9234                12.3934

                     46                     47                     48
                      A                      A                      A
 Frequencies --   1371.5943              1374.9657              1386.4919
 Red. masses --      1.2709                 1.3236                 1.3124
 Frc consts  --      1.4087                 1.4743                 1.4864
 IR Inten    --     14.2322                 4.3528                 8.5586

                     49                     50                     51
                      A                      A                      A
 Frequencies --   1387.2831              1390.6169              1404.3443
 Red. masses --      1.3131                 1.2955                 1.2328
 Frc consts  --      1.4890                 1.4761                 1.4325
 IR Inten    --     20.4292                62.8680                 6.7642

                     52                     53                     54
                      A                      A                      A
 Frequencies --   1453.1167              1486.8216              1502.9895
 Red. masses --      1.1667                 1.0846                 1.0897
 Frc consts  --      1.4515                 1.4127                 1.4504
 IR Inten    --    105.2846                 1.8012                 1.4652

                     55                     56                     57
                      A                      A                      A
 Frequencies --   1506.1013              1512.1967              1529.5840
 Red. masses --      1.0908                 1.0947                 1.0838
 Frc consts  --      1.4578                 1.4749                 1.4939
 IR Inten    --      3.7526                 8.1957                 6.4400

                     58                     59                     60
                      A                      A                      A
 Frequencies --   2395.8400              2566.2784              2863.5222
 Red. masses --      1.0765                 1.0585                 1.0730
 Frc consts  --      3.6407                 4.1073                 5.1837
 IR Inten    --    772.8813               533.6306               261.3415

                     61                     62                     63
                      A                      A                      A
 Frequencies --   2869.5680              2874.2598              2896.7722
 Red. masses --      1.0773                 1.0722                 1.0637
 Frc consts  --      5.2265                 5.2187                 5.2590
 IR Inten    --    209.1975               218.7168               106.6504

                     64                     65                     66
                      A                      A                      A
 Frequencies --   2930.9901              2936.1227              2945.8950
 Red. masses --      1.0707                 1.1032                 1.0658
 Frc consts  --      5.4191                 5.6036                 5.4495
 IR Inten    --    446.4862               221.9168               256.2639

                     67                     68                     69
                      A                      A                      A
 Frequencies --   3006.3162              3030.3408              3033.5778
 Red. masses --      1.0859                 1.0864                 1.0991
 Frc consts  --      5.7827                 5.8780                 5.9591
 IR Inten    --     52.5223                53.1628                 8.5675

 - Thermochemistry -
 -------------------
 Temperature   298.150 Kelvin.  Pressure   1.00000 Atm.
 Atom     1 has atomic number 14 and mass  27.97693

 Molecular mass:   208.04032 amu.
 Principal axes and moments of inertia in atomic units:
                           1         2         3
     Eigenvalues --  1561.393213110.087363681.68949
           X            0.99988  -0.01531   0.00315
           Y            0.01529   0.99986   0.00737
           Z           -0.00326  -0.00732   0.99997
 This molecule is an asymmetric top.
 Rotational symmetry number  1.
 Warning -- assumption of classical behavior for rotation
           may cause significant error
 Rotational temperatures (Kelvin)      0.05547     0.02785     0.02353
 Rotational constants (GHZ):           1.15585     0.58029     0.49019
 Zero-point vibrational energy     504567.6 (Joules/Mol)
                                  120.59456 (Kcal/Mol)
 Warning -- explicit consideration of  18 degrees of freedom as
           vibrations may cause significant error
 Vibrational temperatures:     61.50    89.93   134.66   151.52   162.71
          (Kelvin)            195.89   243.55   290.73   318.14   379.76
                              416.73   509.44   544.68   580.86   621.54
                              646.64   750.45   874.26   924.97   954.68
                              961.08  1048.32  1056.89  1116.86  1237.97
                             1282.79  1319.93  1339.31  1361.20  1362.83
                             1598.93  1632.05  1649.95  1654.96  1676.43
                             1699.10  1706.48  1732.81  1759.73  1801.45
                             1809.70  1814.68  1821.02  1850.90  1902.19
                             1973.42  1978.27  1994.85  1995.99  2000.79
                             2020.54  2090.71  2139.20  2162.47  2166.94
                             2175.71  2200.73  3447.08  3692.30  4119.97
                             4128.67  4135.42  4167.81  4217.04  4224.43
                             4238.49  4325.42  4359.98  4364.64

 Zero-point correction=                           0.192180 (Hartree/Particle)
 Thermal correction to Energy=                    0.205331
 Thermal correction to Enthalpy=                  0.206275
 Thermal correction to Gibbs Free Energy=         0.151839
 Sum of electronic and zero-point Energies=           -976.672800
 Sum of electronic and thermal Energies=              -976.659648
 Sum of electronic and thermal Enthalpies=            -976.658704
 Sum of electronic and thermal Free Energies=         -976.713140

                     E (Thermal)             CV                S
                      KCal/Mol        Cal/Mol-Kelvin    Cal/Mol-Kelvin
 Total                  128.847             48.153            114.571
 Electronic               0.000              0.000              0.000
 Translational            0.889              2.981             41.902
 Rotational               0.889              2.981             31.259
 Vibrational            127.070             42.192             41.410
 Vibration     1          0.595              1.980              5.128
 Vibration     2          0.597              1.972              4.377
 Vibration     3          0.603              1.954              3.584
 Vibration     4          0.605              1.945              3.354
 Vibration     5          0.607              1.939              3.215
 Vibration     6          0.614              1.917              2.857
 Vibration     7          0.625              1.880              2.443
 Vibration     8          0.639              1.837              2.114
 Vibration     9          0.648              1.809              1.950
 Vibration    10          0.671              1.739              1.636
 Vibration    11          0.686              1.693              1.476
 Vibration    12          0.730              1.567              1.148
 Vibration    13          0.749              1.516              1.045
 Vibration    14          0.769              1.462              0.949
 Vibration    15          0.793              1.401              0.852
 Vibration    16          0.808              1.362              0.797
 Vibration    17          0.877              1.202              0.606
 Vibration    18          0.966              1.016              0.437

                           ! Non-Optimized Parameters !
 Normal termination of Gaussian 16 at Tue Feb 13 05:45:50 2024.
