 Gaussian 16, Revision C.01,
 Gaussian 16:  ES64L-G16RevC.01  3-Jul-2019

 ---------------------------------------------
 # opt freq wb97xd/def2tzvpp geom=connectivity
 ---------------------------------------------

 -------------------------------------
 Reactant opt IRC for Frozenboth21 opt
 -------------------------------------
 Symbolic Z-matrix:
 Charge =  0 Multiplicity = 1

 SCF Done:  E(RwB97XD) =  -823.370816337     A.U. after   13 cycles
 SCF Done:  E(RwB97XD) =  -823.371620955     A.U. after   11 cycles
 SCF Done:  E(RwB97XD) =  -823.372082100     A.U. after   11 cycles
 SCF Done:  E(RwB97XD) =  -823.372758780     A.U. after   11 cycles
 SCF Done:  E(RwB97XD) =  -823.373370286     A.U. after   11 cycles
 SCF Done:  E(RwB97XD) =  -823.374418973     A.U. after   11 cycles
 SCF Done:  E(RwB97XD) =  -823.375229946     A.U. after   11 cycles
 SCF Done:  E(RwB97XD) =  -823.376025955     A.U. after   10 cycles
 SCF Done:  E(RwB97XD) =  -823.376535149     A.U. after   11 cycles
 SCF Done:  E(RwB97XD) =  -823.376420185     A.U. after   11 cycles
 SCF Done:  E(RwB97XD) =  -823.377805486     A.U. after    9 cycles
 SCF Done:  E(RwB97XD) =  -823.377811025     A.U. after    9 cycles
 SCF Done:  E(RwB97XD) =  -823.377823480     A.U. after    9 cycles
 SCF Done:  E(RwB97XD) =  -823.377830251     A.U. after    9 cycles
 SCF Done:  E(RwB97XD) =  -823.377833557     A.U. after    8 cycles
 SCF Done:  E(RwB97XD) =  -823.377834607     A.U. after    7 cycles
 SCF Done:  E(RwB97XD) =  -823.377835196     A.U. after    6 cycles
 SCF Done:  E(RwB97XD) =  -823.377835958     A.U. after    6 cycles
 SCF Done:  E(RwB97XD) =  -823.377836442     A.U. after    6 cycles
 Optimization completed.
    -- Stationary point found.
 Normal termination of Gaussian 16 at Tue Jan 30 19:13:55 2024.

 ----------------------------------------------------------------------
 #N Geom=AllCheck Guess=TCheck SCRF=Check GenChk RwB97XD/def2TZVPP Freq
 ----------------------------------------------------------------------

 Structure from the checkpoint file:  "ReactanttOpt_IRC_fromfrozenboth21.chk"
 -------------------------------------
 Reactant opt IRC for Frozenboth21 opt
 -------------------------------------
 Charge =  0 Multiplicity = 1

                         Standard orientation:
 ---------------------------------------------------------------------
 Center     Atomic      Atomic             Coordinates (Angstroms)
 Number     Number       Type             X           Y           Z
 ---------------------------------------------------------------------
      1         14           0        1.495997   -0.043149    0.055004
      2          8           0        0.821936   -1.493403   -0.118899
      3          1           0       -0.147744   -1.566508   -0.139163
      4          8           0        3.072004   -0.136509   -0.352277
      5          1           0        3.512883   -0.971478   -0.214677
      6          8           0        0.846814    1.122516   -0.920589
      7          1           0        1.215456    1.186987   -1.799478
      8          8           0        1.239046    0.474093    1.581471
      9          1           0        1.567573    1.339525    1.813888
     10          6           0       -2.741244   -0.665277    0.400037
     11          1           0       -2.749524   -1.199136    1.349557
     12          1           0       -3.761447   -0.642032    0.005707
     13          6           0       -2.218551    0.749054    0.581957
     14          1           0       -1.283925    0.728741    1.148528
     15          1           0       -2.944318    1.334977    1.152439
     16          8           0       -1.908913   -1.398988   -0.486995
     17          1           0       -1.868852   -0.876858   -1.293385
     18          8           0       -2.026632    1.347438   -0.684790
     19          1           0       -1.079325    1.446033   -0.828786
 ---------------------------------------------------------------------

 SCF Done:  E(RwB97XD) =  -823.377836442     A.U. after    1 cycles

 The electronic state is 1-A.
 Alpha  occ. eigenvalues --  -66.31090 -19.26865 -19.26795 -19.25577 -19.25483
 Alpha  occ. eigenvalues --  -19.24427 -19.23695 -10.33311 -10.32758  -5.42837
 Alpha  occ. eigenvalues --   -3.77381  -3.77334  -3.77269  -1.15264  -1.14383
 Alpha  occ. eigenvalues --   -1.11830  -1.10876  -1.10558  -1.08903  -0.84186
 Alpha  occ. eigenvalues --   -0.72071  -0.68493  -0.63495  -0.62499  -0.61648
 Alpha  occ. eigenvalues --   -0.60277  -0.59732  -0.56486  -0.52523  -0.50116
 Alpha  occ. eigenvalues --   -0.49364  -0.47832  -0.47472  -0.46253  -0.44778
 Alpha  occ. eigenvalues --   -0.44315  -0.43665  -0.42256  -0.40867  -0.40565
 Alpha  occ. eigenvalues --   -0.38659  -0.35954
 Alpha virt. eigenvalues --    0.07810   0.11784   0.12866   0.13176   0.14435
 Alpha virt. eigenvalues --    0.17139   0.17824   0.18505   0.20147   0.20827
 Alpha virt. eigenvalues --    0.22034   0.22863   0.23074   0.24078   0.26248

 Mulliken charges:
               1
     1  Si   0.791259
     2  O   -0.425981
     3  H    0.232093
     4  O   -0.398474
     5  H    0.186805
     6  O   -0.411007
     7  H    0.193530
     8  O   -0.366952
     9  H    0.179593
    10  C    0.069574
    11  H    0.075476
    12  H    0.082904
    13  C   -0.000093
    14  H    0.078966
    15  H    0.079273
    16  O   -0.356090
    17  H    0.177412
    18  O   -0.412513
    19  H    0.224228
 Sum of Mulliken charges =  -0.00000

 Dipole moment (field-independent basis, Debye):
    X=              0.7140    Y=              0.8344    Z=             -0.0128  Tot=              1.0983
 Quadrupole moment (field-independent basis, Debye-Ang):
   XX=            -55.8584   YY=            -63.4094   ZZ=            -55.6695
   XY=              1.6738   XZ=             -3.1432   YZ=              1.9798

  Exact polarizability:      79.888      -0.399      66.994      -2.920       0.264      65.952
 Approx polarizability:      75.224      -0.716      71.433      -2.378      -0.789      72.398

                      1                      2                      3
                      A                      A                      A
 Frequencies --     35.9394                60.1683                72.7400
 Red. masses --      6.2912                 6.7642                 7.2156
 Frc consts  --      0.0048                 0.0144                 0.0225
 IR Inten    --      2.7285                 1.5873                 0.9951

                      4                      5                      6
                      A                      A                      A
 Frequencies --     96.1159               136.9701               165.2334
 Red. masses --      2.9367                 4.7513                 3.0889
 Frc consts  --      0.0160                 0.0525                 0.0497
 IR Inten    --      2.5977                 9.6508                29.7008

                      7                      8                      9
                      A                      A                      A
 Frequencies --    175.3028               208.9863               228.0640
 Red. masses --      3.2411                 1.6468                 1.6409
 Frc consts  --      0.0587                 0.0424                 0.0503
 IR Inten    --     24.6417                44.1017                30.1674

                     10                     11                     12
                      A                      A                      A
 Frequencies --    277.8659               296.8772               314.0543
 Red. masses --      1.5934                 1.9120                 2.3095
 Frc consts  --      0.0725                 0.0993                 0.1342
 IR Inten    --     26.2763                22.7336                26.5993

                     13                     14                     15
                      A                      A                      A
 Frequencies --    360.8828               373.4493               385.5796
 Red. masses --      2.2818                 3.0790                 6.0444
 Frc consts  --      0.1751                 0.2530                 0.5295
 IR Inten    --     25.8328                52.8293                39.2499

                     16                     17                     18
                      A                      A                      A
 Frequencies --    405.3859               467.3021               552.3549
 Red. masses --      4.3390                 1.2919                 2.1687
 Frc consts  --      0.4201                 0.1662                 0.3898
 IR Inten    --    117.5399               183.7634                41.8633

                     19                     20                     21
                      A                      A                      A
 Frequencies --    598.1470               765.1615               777.0692
 Red. masses --      1.1491                 1.3247                 3.8799
 Frc consts  --      0.2422                 0.4570                 1.3803
 IR Inten    --     66.1946                16.1060                 7.3076

                     22                     23                     24
                      A                      A                      A
 Frequencies --    821.2217               846.5816               879.0657
 Red. masses --      1.4519                 1.3927                 1.6766
 Frc consts  --      0.5769                 0.5881                 0.7633
 IR Inten    --    190.2375               185.8155               148.9640

                     25                     26                     27
                      A                      A                      A
 Frequencies --    889.2681               906.4122               925.6759
 Red. masses --      1.5887                 2.6249                 2.7339
 Frc consts  --      0.7402                 1.2706                 1.3802
 IR Inten    --      6.0269                25.1789                75.9930

                     28                     29                     30
                      A                      A                      A
 Frequencies --    973.0122              1013.4702              1061.9955
 Red. masses --      2.6274                 4.1193                 1.5285
 Frc consts  --      1.4656                 2.4929                 1.0157
 IR Inten    --    185.3347               278.6047               212.4789

                     31                     32                     33
                      A                      A                      A
 Frequencies --   1084.3623              1097.9629              1137.1747
 Red. masses --      2.3106                 2.3166                 3.0110
 Frc consts  --      1.6007                 1.6454                 2.2941
 IR Inten    --     46.1555                61.5105                55.0320

                     34                     35                     36
                      A                      A                      A
 Frequencies --   1224.8711              1283.9749              1390.0590
 Red. masses --      1.1809                 1.1694                 1.2072
 Frc consts  --      1.0438                 1.1359                 1.3744
 IR Inten    --     14.1093                 5.9752                 4.1732

                     37                     38                     39
                      A                      A                      A
 Frequencies --   1407.8796              1429.9974              1461.2115
 Red. masses --      1.1629                 1.2740                 1.3134
 Frc consts  --      1.3581                 1.5349                 1.6522
 IR Inten    --     29.8429                38.8970                19.9286

                     40                     41                     42
                      A                      A                      A
 Frequencies --   1508.6144              1520.7138              3043.5626
 Red. masses --      1.0857                 1.0875                 1.0634
 Frc consts  --      1.4559                 1.4817                 5.8036
 IR Inten    --      3.4826                 2.2303                24.4615

                     43                     44                     45
                      A                      A                      A
 Frequencies --   3047.0439              3097.6287              3130.3631
 Red. masses --      1.0636                 1.1051                 1.1006
 Frc consts  --      5.8179                 6.2475                 6.3544
 IR Inten    --     58.8742                31.8842                21.4043

                     46                     47                     48
                      A                      A                      A
 Frequencies --   3595.3698              3787.7686              3845.3054
 Red. masses --      1.0692                 1.0674                 1.0649
 Frc consts  --      8.1435                 9.0232                 9.2776
 IR Inten    --    832.3285               451.6332                45.8760

                     49                     50                     51
                      A                      A                      A
 Frequencies --   3963.1475              3974.9237              3981.6941
 Red. masses --      1.0660                 1.0663                 1.0665
 Frc consts  --      9.8649                 9.9264                 9.9621
 IR Inten    --     95.3610                99.3295                91.4103

 - Thermochemistry -
 -------------------
 Temperature   298.150 Kelvin.  Pressure   1.00000 Atm.
 Atom     1 has atomic number 14 and mass  27.97693

 Molecular mass:   158.02467 amu.
 Principal axes and moments of inertia in atomic units:
                           1         2         3
     Eigenvalues --   830.198152404.310912616.27298
           X            0.99994   0.00309  -0.01067
           Y           -0.00284   0.99972   0.02341
           Z            0.01074  -0.02338   0.99967
 This molecule is an asymmetric top.
 Rotational symmetry number  1.
 Warning -- assumption of classical behavior for rotation
           may cause significant error
 Rotational temperatures (Kelvin)      0.10433     0.03602     0.03311
 Rotational constants (GHZ):           2.17387     0.75063     0.68981
 Zero-point vibrational energy     389288.7 (Joules/Mol)
                                   93.04222 (Kcal/Mol)
 Warning -- explicit consideration of  19 degrees of freedom as
           vibrations may cause significant error
 Vibrational temperatures:     51.71    86.57   104.66   138.29   197.07
          (Kelvin)            237.73   252.22   300.68   328.13   399.79
                              427.14   451.85   519.23   537.31   554.76
                              583.26   672.34   794.72   860.60  1100.90
                             1118.03  1181.55  1218.04  1264.78  1279.46
                             1304.13  1331.84  1399.95  1458.16  1527.97
                             1560.16  1579.72  1636.14  1762.32  1847.35
                             1999.98  2025.62  2057.45  2102.36  2170.56
                             2187.97  4379.01  4384.02  4456.80  4503.89
                             5172.94  5449.75  5532.54  5702.09  5719.03
                             5728.77

 Zero-point correction=                           0.148272 (Hartree/Particle)
 Thermal correction to Energy=                    0.161220
 Thermal correction to Enthalpy=                  0.162165
 Thermal correction to Gibbs Free Energy=         0.108711
 Sum of electronic and zero-point Energies=           -823.229564
 Sum of electronic and thermal Energies=              -823.216616
 Sum of electronic and thermal Enthalpies=            -823.215672
 Sum of electronic and thermal Free Energies=         -823.269126

                     E (Thermal)             CV                S
                      KCal/Mol        Cal/Mol-Kelvin    Cal/Mol-Kelvin
 Total                  101.167             45.094            112.503
 Electronic               0.000              0.000              0.000
 Translational            0.889              2.981             41.082
 Rotational               0.889              2.981             30.036
 Vibrational             99.390             39.132             41.385
 Vibration     1          0.594              1.982              5.471
 Vibration     2          0.597              1.973              4.452
 Vibration     3          0.599              1.967              4.078
 Vibration     4          0.603              1.952              3.532
 Vibration     5          0.614              1.916              2.846
 Vibration     6          0.624              1.885              2.489
 Vibration     7          0.627              1.873              2.378
 Vibration     8          0.642              1.827              2.053
 Vibration     9          0.651              1.798              1.894
 Vibration    10          0.679              1.714              1.547
 Vibration    11          0.691              1.680              1.434
 Vibration    12          0.702              1.647              1.341
 Vibration    13          0.735              1.553              1.118
 Vibration    14          0.745              1.527              1.066
 Vibration    15          0.754              1.501              1.017
 Vibration    16          0.770              1.459              0.943
 Vibration    17          0.825              1.323              0.745
 Vibration    18          0.908              1.135              0.539
 Vibration    19          0.956              1.036              0.453

                           ! Non-Optimized Parameters !
 Normal termination of Gaussian 16 at Tue Jan 30 19:53:14 2024.
