 Gaussian 16, Revision C.01,
 Gaussian 16:  ES64L-G16RevC.01  3-Jul-2019

 ---------------------------------------------
 # opt freq wb97xd/def2tzvpp geom=connectivity
 ---------------------------------------------

 TS opt of scan peak max corresponding to proton transfer from ethylene
  glycol to ligand
 ----------------------------------------------------------------------
 Symbolic Z-matrix:
 Charge = -1 Multiplicity = 1

 SCF Done:  E(RwB97XD) =  -746.350241821     A.U. after   14 cycles
 SCF Done:  E(RwB97XD) =  -746.346245344     A.U. after   13 cycles
 SCF Done:  E(RwB97XD) =  -746.351618428     A.U. after   12 cycles
 SCF Done:  E(RwB97XD) =  -746.349278211     A.U. after   13 cycles
 SCF Done:  E(RwB97XD) =  -746.353353690     A.U. after   12 cycles
 SCF Done:  E(RwB97XD) =  -746.354340493     A.U. after   13 cycles
 SCF Done:  E(RwB97XD) =  -746.354611464     A.U. after   13 cycles
 SCF Done:  E(RwB97XD) =  -746.354727654     A.U. after   11 cycles
 SCF Done:  E(RwB97XD) =  -746.354765217     A.U. after   12 cycles
 SCF Done:  E(RwB97XD) =  -746.354836800     A.U. after   10 cycles
 SCF Done:  E(RwB97XD) =  -746.357715713     A.U. after    9 cycles
 SCF Done:  E(RwB97XD) =  -746.357722533     A.U. after    9 cycles
 SCF Done:  E(RwB97XD) =  -746.357728162     A.U. after   10 cycles
 SCF Done:  E(RwB97XD) =  -746.357730558     A.U. after    8 cycles
 SCF Done:  E(RwB97XD) =  -746.357732428     A.U. after    9 cycles
 SCF Done:  E(RwB97XD) =  -746.357735139     A.U. after    8 cycles
 SCF Done:  E(RwB97XD) =  -746.357737364     A.U. after    9 cycles
 SCF Done:  E(RwB97XD) =  -746.357738278     A.U. after    8 cycles
 SCF Done:  E(RwB97XD) =  -746.357738684     A.U. after    8 cycles
 Optimization completed.
    -- Stationary point found.
 Normal termination of Gaussian 16 at Tue Mar 26 02:05:15 2024.

 ----------------------------------------------------------------------
 #N Geom=AllCheck Guess=TCheck SCRF=Check GenChk RwB97XD/def2TZVPP Freq
 ----------------------------------------------------------------------

 ----------------------------------------------------------------------
 TS opt of scan peak max corresponding to proton transfer from ethylene
  glycol to ligand
 ----------------------------------------------------------------------
 Charge = -1 Multiplicity = 1

                         Standard orientation:
 ---------------------------------------------------------------------
 Center     Atomic      Atomic             Coordinates (Angstroms)
 Number     Number       Type             X           Y           Z
 ---------------------------------------------------------------------
      1         14           0        0.971095    0.104304   -0.023987
      2          8           0        1.493869   -0.262178    1.525497
      3          1           0        1.464567    0.536954    2.046640
      4          8           0        0.383813    1.545323   -0.163746
      5          1           0       -1.233749    1.389638    0.030702
      6          8           0        2.267738   -0.225047   -1.021425
      7          1           0        2.313375    0.451505   -1.692850
      8          8           0       -0.093834   -1.127849   -0.393854
      9          6           0       -1.364151   -1.206480    0.190852
     10          1           0       -1.302793   -1.112480    1.284408
     11          1           0       -1.766644   -2.203318   -0.033285
     12          6           0       -2.356317   -0.167197   -0.329129
     13          1           0       -2.301568   -0.183472   -1.430163
     14          1           0       -3.364095   -0.500784   -0.048394
     15          8           0       -2.186786    1.120223    0.179582
 ---------------------------------------------------------------------

 SCF Done:  E(RwB97XD) =  -746.357738684     A.U. after    1 cycles

 The electronic state is 1-A.
 Alpha  occ. eigenvalues --  -66.09739 -19.07322 -19.07139 -19.07070 -19.05914
 Alpha  occ. eigenvalues --  -18.98290 -10.17941 -10.17297  -5.21578  -3.56123
 Alpha  occ. eigenvalues --   -3.56114  -3.55923  -0.96069  -0.94066  -0.92614
 Alpha  occ. eigenvalues --   -0.92028  -0.80289  -0.67261  -0.55656  -0.47533
 Alpha  occ. eigenvalues --   -0.43420  -0.41702  -0.40553  -0.39471  -0.34642
 Alpha  occ. eigenvalues --   -0.33797  -0.32773  -0.29922  -0.27789  -0.26264
 Alpha  occ. eigenvalues --   -0.24536  -0.23609  -0.22090  -0.21324  -0.18473
 Alpha  occ. eigenvalues --   -0.16725  -0.15783
 Alpha virt. eigenvalues --    0.24830   0.26226   0.27972   0.30133   0.31626
 Alpha virt. eigenvalues --    0.32494   0.33929   0.34756   0.36343   0.37220
 Alpha virt. eigenvalues --    0.38104   0.42512   0.43930   0.44028   0.45992

 Mulliken charges:
               1
     1  Si   0.710638
     2  O   -0.458480
     3  H    0.165983
     4  O   -0.733553
     5  H    0.248008
     6  O   -0.465677
     7  H    0.161129
     8  O   -0.406417
     9  C    0.079506
    10  H    0.031622
    11  H    0.022344
    12  C    0.081489
    13  H    0.019390
    14  H    0.016633
    15  O   -0.472616
 Sum of Mulliken charges =  -1.00000

 Dipole moment (field-independent basis, Debye):
    X=             -0.8007    Y=             -1.8707    Z=             -0.0434  Tot=              2.0353
 Quadrupole moment (field-independent basis, Debye-Ang):
   XX=            -71.4350   YY=            -68.0376   ZZ=            -55.5590
   XY=              9.0524   XZ=             -0.1251   YZ=              0.2392

  Exact polarizability:      77.354       3.066      65.111      -0.436      -0.229      63.341
 Approx polarizability:      72.145       1.087      70.454      -1.410       0.618      68.232

                      1                      2                      3
                      A                      A                      A
 Frequencies --     42.6843               100.5655               158.6929
 Red. masses --      6.2805                 2.9086                 1.6661
 Frc consts  --      0.0067                 0.0173                 0.0247
 IR Inten    --      0.3074                 7.8404                31.5393

                      4                      5                      6
                      A                      A                      A
 Frequencies --    185.3486               209.7874               249.8107
 Red. masses --      5.2915                 2.1595                 2.8957
 Frc consts  --      0.1071                 0.0560                 0.1065
 IR Inten    --     17.1908                 6.2261                 4.6521

                      7                      8                      9
                      A                      A                      A
 Frequencies --    266.0692               319.0137               351.4920
 Red. masses --      2.3572                 2.0618                 3.8288
 Frc consts  --      0.0983                 0.1236                 0.2787
 IR Inten    --     12.4114                34.4578                41.6939

                     10                     11                     12
                      A                      A                      A
 Frequencies --    370.9797               405.3435               458.8492
 Red. masses --      4.2164                 5.1825                 8.6050
 Frc consts  --      0.3419                 0.5017                 1.0674
 IR Inten    --     40.2414                31.7479               114.1860

                     13                     14                     15
                      A                      A                      A
 Frequencies --    531.6384               691.3935               798.5310
 Red. masses --      2.4186                 5.4766                 8.4783
 Frc consts  --      0.4028                 1.5424                 3.1852
 IR Inten    --     12.1750                33.7688               223.4772

                     16                     17                     18
                      A                      A                      A
 Frequencies --    840.2532               883.6854               917.8414
 Red. masses --      4.7642                 2.7104                 1.3725
 Frc consts  --      1.9818                 1.2470                 0.6812
 IR Inten    --    337.5479                87.6780                18.1849

                     19                     20                     21
                      A                      A                      A
 Frequencies --    929.6016               945.2828               977.2468
 Red. masses --      1.3668                 2.0265                 1.0717
 Frc consts  --      0.6959                 1.0669                 0.6030
 IR Inten    --     60.6002                37.0527                70.4536

                     22                     23                     24
                      A                      A                      A
 Frequencies --   1112.7029              1118.8815              1163.7962
 Red. masses --      3.9160                 3.4827                 3.7136
 Frc consts  --      2.8566                 2.5688                 2.9635
 IR Inten    --    114.8115               187.6054                77.7562

                     25                     26                     27
                      A                      A                      A
 Frequencies --   1174.8469              1270.8318              1322.2458
 Red. masses --      4.5506                 1.1021                 1.1399
 Frc consts  --      3.7006                 1.0487                 1.1742
 IR Inten    --    207.3762                 1.9218                15.8845

                     28                     29                     30
                      A                      A                      A
 Frequencies --   1396.9779              1407.1244              1490.4463
 Red. masses --      1.2633                 1.3609                 1.0945
 Frc consts  --      1.4526                 1.5875                 1.4325
 IR Inten    --     12.1127                25.0225                 3.6763

                     31                     32                     33
                      A                      A                      A
 Frequencies --   1497.8785              1578.4671              2939.7791
 Red. masses --      1.0861                 1.1179                 1.0637
 Frc consts  --      1.4357                 1.6411                 5.4163
 IR Inten    --      0.9572                51.5068               223.9981

                     34                     35                     36
                      A                      A                      A
 Frequencies --   2973.8262              3005.2453              3015.2520
 Red. masses --      1.0599                 1.0929                 1.1058
 Frc consts  --      5.5227                 5.8157                 5.9235
 IR Inten    --     37.6700               523.3657               135.8625

                     37                     38                     39
                      A                      A                      A
 Frequencies --   3059.6515              3970.6477              3974.3482
 Red. masses --      1.0756                 1.0653                 1.0654
 Frc consts  --      5.9324                 9.8961                 9.9150
 IR Inten    --    794.8845                42.4461                41.8060

 - Thermochemistry -
 -------------------
 Temperature   298.150 Kelvin.  Pressure   1.00000 Atm.
 Atom     1 has atomic number 14 and mass  27.97693

 Molecular mass:   139.00628 amu.
 Principal axes and moments of inertia in atomic units:
                           1         2         3
     Eigenvalues --   632.657961474.336791607.67112
           X            0.99948   0.03217   0.00268
           Y           -0.03212   0.99933  -0.01774
           Z           -0.00325   0.01765   0.99984
 This molecule is an asymmetric top.
 Rotational symmetry number  1.
 Warning -- assumption of classical behavior for rotation
           may cause significant error
 Rotational temperatures (Kelvin)      0.13690     0.05875     0.05388
 Rotational constants (GHZ):           2.85263     1.22410     1.12258
 Zero-point vibrational energy     287744.1 (Joules/Mol)
                                   68.77249 (Kcal/Mol)
 Warning -- explicit consideration of  13 degrees of freedom as
           vibrations may cause significant error
 Vibrational temperatures:     61.41   144.69   228.32   266.68   301.84
          (Kelvin)            359.42   382.81   458.99   505.72   533.76
                              583.20   660.18   764.91   994.76  1148.91
                             1208.94  1271.43  1320.57  1337.49  1360.05
                             1406.04  1600.93  1609.82  1674.44  1690.34
                             1828.44  1902.42  2009.94  2024.54  2144.42
                             2155.11  2271.06  4229.69  4278.67  4323.88
                             4338.28  4402.16  5712.88  5718.20

 Zero-point correction=                           0.109596 (Hartree/Particle)
 Thermal correction to Energy=                    0.119219
 Thermal correction to Enthalpy=                  0.120163
 Thermal correction to Gibbs Free Energy=         0.074639
 Sum of electronic and zero-point Energies=           -746.248143
 Sum of electronic and thermal Energies=              -746.238519
 Sum of electronic and thermal Enthalpies=            -746.237575
 Sum of electronic and thermal Free Energies=         -746.283099

                     E (Thermal)             CV                S
                      KCal/Mol        Cal/Mol-Kelvin    Cal/Mol-Kelvin
 Total                   74.811             33.784             95.813
 Electronic               0.000              0.000              0.000
 Translational            0.889              2.981             40.700
 Rotational               0.889              2.981             28.796
 Vibrational             73.034             27.823             26.317
 Vibration     1          0.595              1.980              5.130
 Vibration     2          0.604              1.949              3.443
 Vibration     3          0.621              1.893              2.565
 Vibration     4          0.631              1.860              2.274
 Vibration     5          0.642              1.826              2.046
 Vibration     6          0.663              1.763              1.732
 Vibration     7          0.672              1.735              1.622
 Vibration     8          0.705              1.637              1.315
 Vibration     9          0.728              1.572              1.159
 Vibration    10          0.743              1.532              1.076
 Vibration    11          0.770              1.459              0.943
 Vibration    12          0.817              1.341              0.769
 Vibration    13          0.887              1.180              0.584

 Optimization completed.
    -- Stationary point found.
 Normal termination of Gaussian 16 at Tue Mar 26 02:29:13 2024.
