 Gaussian 16, Revision C.01,
 Gaussian 16:  ES64L-G16RevC.01  3-Jul-2019

 ---------------------------------------------
 # opt freq wb97xd/def2tzvpp geom=connectivity
 ---------------------------------------------

 PL2 OH attack IRC atacking group deprotonated hydroxyl LG optimize rev
 erse endpoint reactant
 ----------------------------------------------------------------------
 Symbolic Z-matrix:
 Charge = -2 Multiplicity = 1

 SCF Done:  E(RwB97XD) =  -1053.31255804     A.U. after   15 cycles
 SCF Done:  E(RwB97XD) =  -1053.31615414     A.U. after   15 cycles
 SCF Done:  E(RwB97XD) =  -1053.32082406     A.U. after   12 cycles
 SCF Done:  E(RwB97XD) =  -1053.32420046     A.U. after   13 cycles
 SCF Done:  E(RwB97XD) =  -1053.32550777     A.U. after   13 cycles
 SCF Done:  E(RwB97XD) =  -1053.32814253     A.U. after   13 cycles
 SCF Done:  E(RwB97XD) =  -1053.32827850     A.U. after   13 cycles
 SCF Done:  E(RwB97XD) =  -1053.33136101     A.U. after   13 cycles
 SCF Done:  E(RwB97XD) =  -1053.33204957     A.U. after   12 cycles
 SCF Done:  E(RwB97XD) =  -1053.33224774     A.U. after   13 cycles
 SCF Done:  E(RwB97XD) =  -1053.33291960     A.U. after    8 cycles
 SCF Done:  E(RwB97XD) =  -1053.33292020     A.U. after   11 cycles
 SCF Done:  E(RwB97XD) =  -1053.33292042     A.U. after   10 cycles
 SCF Done:  E(RwB97XD) =  -1053.33291967     A.U. after   11 cycles
 SCF Done:  E(RwB97XD) =  -1053.33291960     A.U. after    8 cycles
 SCF Done:  E(RwB97XD) =  -1053.33292017     A.U. after   11 cycles
 SCF Done:  E(RwB97XD) =  -1053.33292040     A.U. after   10 cycles
 SCF Done:  E(RwB97XD) =  -1053.33291967     A.U. after   11 cycles
 SCF Done:  E(RwB97XD) =  -1053.33291960     A.U. after    7 cycles
 Optimization completed on the basis of negligible forces.
    -- Stationary point found.
 Normal termination of Gaussian 16 at Wed Feb 21 04:36:55 2024.

 ----------------------------------------------------------------------
 #N Geom=AllCheck Guess=TCheck SCRF=Check GenChk RwB97XD/def2TZVPP Freq
 ----------------------------------------------------------------------

 ----------------------------------------------------------------------
 PL2 OH attack IRC atacking group deprotonated hydroxyl LG optimize rev
 erse endpoint reactant
 ----------------------------------------------------------------------
 Charge = -2 Multiplicity = 1

                         Standard orientation:
 ---------------------------------------------------------------------
 Center     Atomic      Atomic             Coordinates (Angstroms)
 Number     Number       Type             X           Y           Z
 ---------------------------------------------------------------------
      1          6           0        2.838894   -1.255481    0.409166
      2          1           0        1.872304   -1.740745    0.199312
      3          1           0        3.575749   -1.966087    0.813166
      4          6           0        3.378075   -0.648057   -0.877942
      5          1           0        2.555584   -0.136753   -1.389832
      6          1           0        3.776621   -1.419226   -1.544424
      7          8           0        2.668849   -0.222241    1.359773
      8          8           0        4.430756    0.269280   -0.582058
      9          1           0        4.123345    0.635454    0.259226
     10         14           0       -0.989596   -0.368134   -0.129375
     11          8           0       -2.112247   -0.068785    1.188470
     12          1           0        1.714199    0.087265    1.255259
     13          8           0       -0.080178   -1.634839   -0.283276
     14          8           0       -2.434984   -0.880951   -1.107667
     15          6           0       -3.432516   -0.370698    0.916544
     16          1           0       -4.108788    0.350265    1.411090
     17          1           0       -3.697568   -1.378965    1.290373
     18          6           0       -3.587104   -0.342926   -0.607636
     19          1           0       -4.482473   -0.913327   -0.923592
     20          1           0       -3.742489    0.709697   -0.933313
     21          8           0        0.248151    0.611460    0.995987
     22          6           0        0.209404    1.949818    0.698329
     23          1           0        1.136673    2.469333    1.002154
     24          1           0       -0.636695    2.458535    1.204410
     25          6           0        0.009667    2.030520   -0.814752
     26          8           0       -0.889120    1.040899   -1.163414
     27          1           0       -0.366350    3.021844   -1.125208
     28          1           0        0.985897    1.878946   -1.312152
 ---------------------------------------------------------------------

 SCF Done:  E(RwB97XD) =  -1053.33291960     A.U. after    1 cycles

 The electronic state is 1-A.
 Alpha  occ. eigenvalues --  -65.95874 -19.00132 -18.96159 -18.92625 -18.92585
 Alpha  occ. eigenvalues --  -18.90999 -18.90146 -18.81101 -10.07235 -10.05183
 Alpha  occ. eigenvalues --  -10.05048 -10.04741 -10.04563 -10.04534  -5.07022
 Alpha  occ. eigenvalues --   -3.41688  -3.41589  -3.41301  -0.88264  -0.83680
 Alpha  occ. eigenvalues --   -0.82922  -0.81346  -0.77178  -0.75864  -0.62997
 Alpha  occ. eigenvalues --   -0.56586  -0.53503  -0.52223  -0.44921  -0.41309
 Alpha  occ. eigenvalues --   -0.40655  -0.34337  -0.32486  -0.30964  -0.29893
 Alpha  occ. eigenvalues --   -0.29270  -0.29126  -0.28209  -0.27593  -0.26403
 Alpha  occ. eigenvalues --   -0.23331  -0.22524  -0.21516  -0.20425  -0.20176
 Alpha  occ. eigenvalues --   -0.19072  -0.17967  -0.14700  -0.12471  -0.10907
 Alpha  occ. eigenvalues --   -0.09598  -0.09354  -0.08881  -0.08368  -0.07111
 Alpha  occ. eigenvalues --   -0.06446  -0.04668  -0.03762  -0.03263   0.00075
 Alpha  occ. eigenvalues --    0.01695
 Alpha virt. eigenvalues --    0.34829   0.35657   0.36563   0.37684   0.38540
 Alpha virt. eigenvalues --    0.39548   0.39728   0.40542   0.40950   0.42119
 Alpha virt. eigenvalues --    0.43938   0.45015   0.45645   0.46313   0.47222

 Mulliken charges:
               1
     1  C    0.025277
     2  H    0.127761
     3  H   -0.012758
     4  C    0.074806
     5  H    0.075690
     6  H    0.010272
     7  O   -0.530290
     8  O   -0.460331
     9  H    0.199193
    10  Si   0.741602
    11  O   -0.452002
    12  H    0.269354
    13  O   -0.787985
    14  O   -0.515031
    15  C    0.113354
    16  H   -0.039911
    17  H   -0.025160
    18  C    0.121581
    19  H   -0.040445
    20  H   -0.042529
    21  O   -0.515960
    22  C    0.083728
    23  H   -0.017013
    24  H   -0.015999
    25  C    0.102270
    26  O   -0.448454
    27  H   -0.033328
    28  H   -0.007694
 Sum of Mulliken charges =  -2.00000

 Dipole moment (field-independent basis, Debye):
    X=              0.2892    Y=              3.8564    Z=              0.6209  Tot=              3.9168
 Quadrupole moment (field-independent basis, Debye-Ang):
   XX=           -157.6982   YY=           -113.7533   ZZ=           -114.8273
   XY=             -3.7848   XZ=             -3.6945   YZ=             -1.1385

  Exact polarizability:     160.193      -0.140     132.829      -2.714       0.032     116.558
 Approx polarizability:     146.503      -1.451     141.394      -1.276       1.994     129.881

                      1                      2                      3
                      A                      A                      A
 Frequencies --     14.8593                31.6756                37.6780
 Red. masses --      5.9319                 4.9970                 6.0789
 Frc consts  --      0.0008                 0.0030                 0.0051
 IR Inten    --      0.5132                 2.8764                 1.3003

                      4                      5                      6
                      A                      A                      A
 Frequencies --     72.1837                88.4127               105.8806
 Red. masses --      3.3914                 5.6145                 2.8117
 Frc consts  --      0.0104                 0.0259                 0.0186
 IR Inten    --      4.4821                 1.1907                 2.1587

                      7                      8                      9
                      A                      A                      A
 Frequencies --    137.2988               149.8239               170.9226
 Red. masses --      3.7629                 3.9173                 3.6685
 Frc consts  --      0.0418                 0.0518                 0.0631
 IR Inten    --      2.0822                 2.6848                12.3490

                     10                     11                     12
                      A                      A                      A
 Frequencies --    187.8029               243.7210               271.7038
 Red. masses --      3.4461                 3.6513                 2.8415
 Frc consts  --      0.0716                 0.1278                 0.1236
 IR Inten    --     28.1949                14.7460                 2.3452

                     13                     14                     15
                      A                      A                      A
 Frequencies --    288.7149               306.2861               333.5515
 Red. masses --      3.8526                 5.1269                 2.9447
 Frc consts  --      0.1892                 0.2834                 0.1930
 IR Inten    --     31.3087                24.4344                 3.7204

                     16                     17                     18
                      A                      A                      A
 Frequencies --    376.5493               381.3303               408.5698
 Red. masses --      6.8764                 8.7418                 6.7724
 Frc consts  --      0.5745                 0.7490                 0.6661
 IR Inten    --      8.3706                14.0139                58.8044

                     19                     20                     21
                      A                      A                      A
 Frequencies --    476.9444               495.2625               565.5216
 Red. masses --     10.5679                11.5435                 7.4010
 Frc consts  --      1.4164                 1.6682                 1.3946
 IR Inten    --    264.1611                76.2578                22.3910

                     22                     23                     24
                      A                      A                      A
 Frequencies --    567.3134               610.0882               624.8234
 Red. masses --      2.4790                 3.7730                 3.7695
 Frc consts  --      0.4701                 0.8274                 0.8671
 IR Inten    --      7.2914                34.9134               166.2121

                     25                     26                     27
                      A                      A                      A
 Frequencies --    630.7121               641.0890               674.9947
 Red. masses --      1.1455                 3.2719                 4.5999
 Frc consts  --      0.2685                 0.7923                 1.2348
 IR Inten    --     52.5265                19.9455               205.2361

                     28                     29                     30
                      A                      A                      A
 Frequencies --    884.9690               919.8389               920.6083
 Red. masses --      1.8516                 2.4400                 2.2799
 Frc consts  --      0.8544                 1.2164                 1.1385
 IR Inten    --     20.6411                21.6881                11.3124

                     31                     32                     33
                      A                      A                      A
 Frequencies --    922.6914               924.2125               929.7361
 Red. masses --      1.9620                 2.1573                 1.8178
 Frc consts  --      0.9841                 1.0857                 0.9258
 IR Inten    --      7.6061                19.4533                48.9068

                     34                     35                     36
                      A                      A                      A
 Frequencies --   1055.1619              1072.9887              1086.9222
 Red. masses --      1.3504                 2.2571                 6.6723
 Frc consts  --      0.8858                 1.5310                 4.6443
 IR Inten    --     85.0779                59.8833               323.4434

                     37                     38                     39
                      A                      A                      A
 Frequencies --   1113.6727              1140.1223              1146.7760
 Red. masses --      4.9686                 1.7714                 2.5895
 Frc consts  --      3.6308                 1.3567                 2.0064
 IR Inten    --    113.9800                10.1455               164.9401

                     40                     41                     42
                      A                      A                      A
 Frequencies --   1152.7245              1164.2060              1175.6568
 Red. masses --      2.2258                 4.2290                 4.0461
 Frc consts  --      1.7426                 3.3771                 3.2949
 IR Inten    --     38.0874                25.9348                 6.7336

                     43                     44                     45
                      A                      A                      A
 Frequencies --   1181.7835              1195.6345              1219.8403
 Red. masses --      3.0019                 3.4745                 1.2189
 Frc consts  --      2.4702                 2.9264                 1.0686
 IR Inten    --    206.7266               130.7028                15.3900

                     46                     47                     48
                      A                      A                      A
 Frequencies --   1247.8207              1252.2872              1257.1236
 Red. masses --      1.1895                 1.2439                 1.1865
 Frc consts  --      1.0912                 1.1493                 1.1048
 IR Inten    --      2.1074                23.5265                 3.6090

                     49                     50                     51
                      A                      A                      A
 Frequencies --   1259.9138              1296.2133              1364.6506
 Red. masses --      1.2166                 1.1493                 1.1847
 Frc consts  --      1.1379                 1.1378                 1.2998
 IR Inten    --      9.2041                 2.0630                44.1660

                     52                     53                     54
                      A                      A                      A
 Frequencies --   1370.1288              1375.6202              1382.3898
 Red. masses --      1.3106                 1.3442                 1.3407
 Frc consts  --      1.4496                 1.4987                 1.5095
 IR Inten    --      3.5440                14.0814                24.6090

                     55                     56                     57
                      A                      A                      A
 Frequencies --   1388.5910              1437.2211              1452.4428
 Red. masses --      1.3409                 1.1961                 1.2813
 Frc consts  --      1.5234                 1.4557                 1.5926
 IR Inten    --     16.5279                58.5220                56.4651

                     58                     59                     60
                      A                      A                      A
 Frequencies --   1487.6204              1491.5317              1493.5510
 Red. masses --      1.0862                 1.0936                 1.0933
 Frc consts  --      1.4162                 1.4334                 1.4369
 IR Inten    --      7.6025                 2.3041                 2.0900

                     61                     62                     63
                      A                      A                      A
 Frequencies --   1501.3079              1502.7795              1514.8096
 Red. masses --      1.0963                 1.0973                 1.1038
 Frc consts  --      1.4559                 1.4601                 1.4923
 IR Inten    --     14.4596                 1.5699                 1.4747

                     64                     65                     66
                      A                      A                      A
 Frequencies --   1585.9466              2813.5714              2841.6849
 Red. masses --      1.1067                 1.0767                 1.0673
 Frc consts  --      1.6400                 5.0219                 5.0780
 IR Inten    --     32.8613               127.1701               769.3710

                     67                     68                     69
                      A                      A                      A
 Frequencies --   2858.3056              2882.0828              2887.4340
 Red. masses --      1.0668                 1.0793                 1.0777
 Frc consts  --      5.1350                 5.2822                 5.2936
 IR Inten    --    115.6850               383.4213               482.6550

                     70                     71                     72
                      A                      A                      A
 Frequencies --   2892.1180              2902.2780              2916.1678
 Red. masses --      1.0678                 1.0871                 1.1053
 Frc consts  --      5.2625                 5.3953                 5.5380
 IR Inten    --    747.3736               328.5722               305.3119

                     73                     74                     75
                      A                      A                      A
 Frequencies --   2921.5095              2931.7653              3000.9791
 Red. masses --      1.0602                 1.0747                 1.1047
 Frc consts  --      5.3313                 5.4424                 5.8616
 IR Inten    --    307.2289               563.8849               223.4372

                     76                     77                     78
                      A                      A                      A
 Frequencies --   3020.5683              3065.9602              3717.6242
 Red. masses --      1.0572                 1.1085                 1.0644
 Frc consts  --      5.6829                 6.1391                 8.6672
 IR Inten    --     85.0835                75.5186                84.0878

 - Thermochemistry -
 -------------------
 Temperature   298.150 Kelvin.  Pressure   1.00000 Atm.
 Atom     1 has atomic number  6 and mass  12.00000

 Molecular mass:   226.05088 amu.
 Principal axes and moments of inertia in atomic units:
                           1         2         3
     Eigenvalues --  1491.802135229.358615480.98339
           X            0.99997  -0.00583  -0.00554
           Y            0.00576   0.99992  -0.01103
           Z            0.00561   0.01099   0.99992
 This molecule is an asymmetric top.
 Rotational symmetry number  1.
 Warning -- assumption of classical behavior for rotation
           may cause significant error
 Rotational temperatures (Kelvin)      0.05806     0.01656     0.01580
 Rotational constants (GHZ):           1.20977     0.34512     0.32927
 Zero-point vibrational energy     576691.3 (Joules/Mol)
                                  137.83253 (Kcal/Mol)
 Warning -- explicit consideration of  23 degrees of freedom as
           vibrations may cause significant error
 Vibrational temperatures:     21.38    45.57    54.21   103.86   127.21
          (Kelvin)            152.34   197.54   215.56   245.92   270.21
                              350.66   390.92   415.40   440.68   479.91
                              541.77   548.65   587.84   686.22   712.57
                              813.66   816.24   877.78   898.98   907.45
                              922.38   971.17  1273.27  1323.44  1324.55
                             1327.55  1329.74  1337.68  1518.14  1543.79
                             1563.84  1602.33  1640.38  1649.95  1658.51
                             1675.03  1691.51  1700.32  1720.25  1755.08
                             1795.34  1801.76  1808.72  1812.73  1864.96
                             1963.43  1971.31  1979.21  1988.95  1997.87
                             2067.84  2089.74  2140.35  2145.98  2148.89
                             2160.05  2162.16  2179.47  2281.82  4048.10
                             4088.55  4112.46  4146.67  4154.37  4161.11
                             4175.73  4195.72  4203.40  4218.16  4317.74
                             4345.92  4411.23  5348.83

 Zero-point correction=                           0.219650 (Hartree/Particle)
 Thermal correction to Energy=                    0.235285
 Thermal correction to Enthalpy=                  0.236229
 Thermal correction to Gibbs Free Energy=         0.174190
 Sum of electronic and zero-point Energies=          -1053.113269
 Sum of electronic and thermal Energies=             -1053.097635
 Sum of electronic and thermal Enthalpies=           -1053.096690
 Sum of electronic and thermal Free Energies=        -1053.158730

                     E (Thermal)             CV                S
                      KCal/Mol        Cal/Mol-Kelvin    Cal/Mol-Kelvin
 Total                  147.644             55.781            130.573
 Electronic               0.000              0.000              0.000
 Translational            0.889              2.981             42.149
 Rotational               0.889              2.981             32.125
 Vibrational            145.866             49.820             56.299
 Vibration     1          0.593              1.986              7.224
 Vibration     2          0.594              1.983              5.722
 Vibration     3          0.594              1.982              5.378
 Vibration     4          0.598              1.967              4.093
 Vibration     5          0.601              1.957              3.695
 Vibration     6          0.605              1.945              3.343
 Vibration     7          0.614              1.916              2.841
 Vibration     8          0.618              1.903              2.674
 Vibration     9          0.626              1.878              2.425
 Vibration    10          0.632              1.857              2.249
 Vibration    11          0.659              1.773              1.776
 Vibration    12          0.675              1.725              1.585
 Vibration    13          0.685              1.695              1.481
 Vibration    14          0.697              1.662              1.382
 Vibration    15          0.715              1.609              1.243
 Vibration    16          0.747              1.520              1.053
 Vibration    17          0.751              1.510              1.034
 Vibration    18          0.773              1.452              0.932
 Vibration    19          0.834              1.301              0.718
 Vibration    20          0.851              1.261              0.670
 Vibration    21          0.921              1.106              0.513
 Vibration    22          0.923              1.102              0.509
 Vibration    23          0.969              1.010              0.433

 Optimization completed.
    -- Stationary point found.
 Normal termination of Gaussian 16 at Wed Feb 21 07:23:52 2024.
