 Gaussian 16, Revision C.01,
 Gaussian 16:  ES64L-G16RevC.01  3-Jul-2019

 ---------------------------------------------
 # opt freq wb97xd/def2tzvpp geom=connectivity
 ---------------------------------------------

 --------------------------------------------------------
 Product opt deprotonated PL2 attack on EGOH reactant opt
 --------------------------------------------------------
 Symbolic Z-matrix:
 Charge = -2 Multiplicity = 1

 SCF Done:  E(RwB97XD) =  -1053.31728284     A.U. after   17 cycles
 SCF Done:  E(RwB97XD) =  -1053.32287046     A.U. after   16 cycles
 SCF Done:  E(RwB97XD) =  -1053.32275227     A.U. after   14 cycles
 SCF Done:  E(RwB97XD) =  -1053.32580585     A.U. after   15 cycles
 SCF Done:  E(RwB97XD) =  -1053.32712335     A.U. after   14 cycles
 SCF Done:  E(RwB97XD) =  -1053.32824932     A.U. after   14 cycles
 SCF Done:  E(RwB97XD) =  -1053.32926836     A.U. after   14 cycles
 SCF Done:  E(RwB97XD) =  -1053.32982227     A.U. after   13 cycles
 SCF Done:  E(RwB97XD) =  -1053.33004824     A.U. after   14 cycles
 SCF Done:  E(RwB97XD) =  -1053.33008051     A.U. after   13 cycles
 SCF Done:  E(RwB97XD) =  -1053.33015320     A.U. after   13 cycles
 SCF Done:  E(RwB97XD) =  -1053.33015364     A.U. after   10 cycles
 SCF Done:  E(RwB97XD) =  -1053.33015400     A.U. after   10 cycles
 SCF Done:  E(RwB97XD) =  -1053.33015431     A.U. after   10 cycles
 SCF Done:  E(RwB97XD) =  -1053.33015455     A.U. after   10 cycles
 SCF Done:  E(RwB97XD) =  -1053.33015465     A.U. after    9 cycles
 SCF Done:  E(RwB97XD) =  -1053.33015476     A.U. after   10 cycles
 SCF Done:  E(RwB97XD) =  -1053.33015481     A.U. after    8 cycles
 SCF Done:  E(RwB97XD) =  -1053.33015485     A.U. after    6 cycles
 Optimization completed.
    -- Stationary point found.
 Normal termination of Gaussian 16 at Wed Feb 21 02:14:51 2024.

 ----------------------------------------------------------------------
 #N Geom=AllCheck Guess=TCheck SCRF=Check GenChk RwB97XD/def2TZVPP Freq
 ----------------------------------------------------------------------

 Structure from the checkpoint file:  "IRC_PL2attDep_OHLG_forward_optEndpoint.chk"
 --------------------------------------------------------
 Product opt deprotonated PL2 attack on EGOH reactant opt
 --------------------------------------------------------
 Charge = -2 Multiplicity = 1

                         Standard orientation:
 ---------------------------------------------------------------------
 Center     Atomic      Atomic             Coordinates (Angstroms)
 Number     Number       Type             X           Y           Z
 ---------------------------------------------------------------------
      1          6           0        2.645278   -0.480334    0.920176
      2          1           0        2.486820   -1.488997    1.327325
      3          1           0        3.715690   -0.376210    0.706449
      4          6           0        1.901805   -0.392496   -0.399199
      5          1           0        1.913614    0.648703   -0.742175
      6          1           0        2.471575   -0.985284   -1.120451
      7          8           0        2.254487    0.495097    1.875060
      8          8           0        5.921726   -0.869906   -1.009789
      9          1           0        5.294310   -0.170038   -1.207497
     10         14           0       -0.865291   -0.115148   -0.179885
     11          8           0       -1.889209   -0.409932    1.168937
     12          1           0        1.368252    0.798743    1.626663
     13          8           0        0.583945   -0.898922   -0.361159
     14          8           0       -1.704668   -1.390790   -1.045504
     15          6           0       -2.800903   -1.446791    0.995704
     16          1           0       -3.756091   -1.200363    1.480759
     17          1           0       -2.419997   -2.374205    1.451254
     18          6           0       -2.952344   -1.632815   -0.515649
     19          1           0       -3.297944   -2.647313   -0.764035
     20          1           0       -3.708492   -0.921457   -0.900503
     21          8           0       -0.143426    1.233579    0.738089
     22          6           0       -0.688512    2.454868    0.401364
     23          1           0        0.014508    3.271691    0.611378
     24          1           0       -1.615513    2.651383    0.969827
     25          6           0       -1.008446    2.356127   -1.091821
     26          8           0       -1.399454    1.040964   -1.330099
     27          1           0       -1.807939    3.050147   -1.386192
     28          1           0       -0.113189    2.603198   -1.682144
 ---------------------------------------------------------------------

 SCF Done:  E(RwB97XD) =  -1053.33015485     A.U. after    1 cycles

 The electronic state is 1-A.
 Alpha  occ. eigenvalues --  -66.05800 -18.99881 -18.99702 -18.98357 -18.97913
 Alpha  occ. eigenvalues --  -18.97902 -18.97445 -18.77884 -10.11152 -10.11002
 Alpha  occ. eigenvalues --  -10.10844 -10.10620 -10.07487 -10.06125  -5.16875
 Alpha  occ. eigenvalues --   -3.51490  -3.51422  -3.51306  -0.91282  -0.88759
 Alpha  occ. eigenvalues --   -0.86275  -0.84466  -0.84133  -0.82699  -0.60912
 Alpha  occ. eigenvalues --   -0.59533  -0.58817  -0.57269  -0.48410  -0.47140
 Alpha  occ. eigenvalues --   -0.45982  -0.39519  -0.36646  -0.35725  -0.35542
 Alpha  occ. eigenvalues --   -0.34631  -0.33016  -0.32090  -0.31622  -0.29686
 Alpha  occ. eigenvalues --   -0.27921  -0.26830  -0.26563  -0.25670  -0.23755
 Alpha  occ. eigenvalues --   -0.22611  -0.19651  -0.17317  -0.16433  -0.16241
 Alpha  occ. eigenvalues --   -0.15414  -0.14465  -0.13636  -0.12495  -0.11269
 Alpha  occ. eigenvalues --   -0.10898  -0.09952  -0.09191  -0.08418   0.05511
 Alpha  occ. eigenvalues --    0.05537
 Alpha virt. eigenvalues --    0.30889   0.31924   0.34293   0.34734   0.35100
 Alpha virt. eigenvalues --    0.35467   0.36053   0.38816   0.38978   0.39759
 Alpha virt. eigenvalues --    0.40501   0.41582   0.42393   0.42886   0.43979

 Mulliken charges:
               1
     1  C    0.131470
     2  H    0.002087
     3  H    0.030013
     4  C    0.015668
     5  H    0.025983
     6  H    0.059848
     7  O   -0.466845
     8  O   -1.015170
     9  H    0.104615
    10  Si   0.768337
    11  O   -0.423548
    12  H    0.218135
    13  O   -0.378014
    14  O   -0.499191
    15  C    0.071919
    16  H   -0.003236
    17  H    0.017091
    18  C    0.092105
    19  H    0.004136
    20  H   -0.010953
    21  O   -0.511752
    22  C    0.070823
    23  H    0.020733
    24  H    0.003695
    25  C    0.053078
    26  O   -0.416392
    27  H    0.005872
    28  H    0.029493
 Sum of Mulliken charges =  -2.00000

 Dipole moment (field-independent basis, Debye):
    X=            -23.8453    Y=              5.2274    Z=              2.8706  Tot=             24.5798
 Quadrupole moment (field-independent basis, Debye-Ang):
   XX=           -276.9353   YY=           -106.9097   ZZ=           -117.5345
   XY=             23.1985   XZ=             16.5802   YZ=             -9.1595

  Exact polarizability:     147.542       1.227     131.240      -2.353      -3.184     114.481
 Approx polarizability:     138.320      -1.824     134.679      -1.952      -1.151     123.292

                      1                      2                      3
                      A                      A                      A
 Frequencies --     20.3874                27.9873                29.7327
 Red. masses --      8.5686                 6.0520                 7.1341
 Frc consts  --      0.0021                 0.0028                 0.0037
 IR Inten    --     75.3763                13.4817                10.3204

                      4                      5                      6
                      A                      A                      A
 Frequencies --     42.7555                53.9205                99.9567
 Red. masses --      7.7171                 3.3456                 3.1540
 Frc consts  --      0.0083                 0.0057                 0.0186
 IR Inten    --     20.9796                 0.5564                15.1248

                      7                      8                      9
                      A                      A                      A
 Frequencies --    120.8716               137.0490               144.1230
 Red. masses --      3.9806                 1.4341                 2.5076
 Frc consts  --      0.0343                 0.0159                 0.0307
 IR Inten    --      4.5840                39.0818                 9.0560

                     10                     11                     12
                      A                      A                      A
 Frequencies --    154.5493               185.7784               217.1228
 Red. masses --      3.1398                 2.6161                 4.3670
 Frc consts  --      0.0442                 0.0532                 0.1213
 IR Inten    --     12.2534                 7.5637                 1.1621

                     13                     14                     15
                      A                      A                      A
 Frequencies --    254.1231               259.6476               273.9621
 Red. masses --      2.5655                 2.6201                 1.1028
 Frc consts  --      0.0976                 0.1041                 0.0488
 IR Inten    --     12.9488                 0.1903               135.3018

                     16                     17                     18
                      A                      A                      A
 Frequencies --    320.9564               366.1650               387.3223
 Red. masses --      3.2303                 6.7470                 5.1810
 Frc consts  --      0.1961                 0.5330                 0.4579
 IR Inten    --     12.0884                 3.3035                10.2551

                     19                     20                     21
                      A                      A                      A
 Frequencies --    403.4821               420.4693               478.2695
 Red. masses --      5.5002                 6.9992                 5.0379
 Frc consts  --      0.5276                 0.7291                 0.6790
 IR Inten    --      2.3127                 1.6740                 9.1927

                     22                     23                     24
                      A                      A                      A
 Frequencies --    535.7680               597.2610               619.4603
 Red. masses --      2.5149                 8.9095                 2.6910
 Frc consts  --      0.4253                 1.8726                 0.6084
 IR Inten    --      8.3343                44.3321                51.4286

                     25                     26                     27
                      A                      A                      A
 Frequencies --    630.1088               650.4985               665.2051
 Red. masses --      1.6383                 1.8399                 6.8198
 Frc consts  --      0.3832                 0.4587                 1.7780
 IR Inten    --     11.7115                 8.8420                 5.9337

                     28                     29                     30
                      A                      A                      A
 Frequencies --    691.0603               758.4093               777.2129
 Red. masses --      4.0828                 8.6623                 5.5685
 Frc consts  --      1.1488                 2.9356                 1.9818
 IR Inten    --    276.7126               338.2291               129.1542

                     31                     32                     33
                      A                      A                      A
 Frequencies --    899.7703               918.0736               924.4033
 Red. masses --      2.7653                 1.7541                 1.7973
 Frc consts  --      1.3190                 0.8711                 0.9049
 IR Inten    --     55.1678                26.5722                45.7835

                     34                     35                     36
                      A                      A                      A
 Frequencies --    933.6550               936.9947               956.9491
 Red. masses --      2.3904                 2.4016                 2.1480
 Frc consts  --      1.2277                 1.2423                 1.1589
 IR Inten    --     12.5190                 6.8610                87.7127

                     37                     38                     39
                      A                      A                      A
 Frequencies --   1110.6474              1126.7039              1146.2565
 Red. masses --      3.4267                 2.1169                 3.2225
 Frc consts  --      2.4904                 1.5833                 2.4946
 IR Inten    --     68.6217                 8.3530               260.2166

                     40                     41                     42
                      A                      A                      A
 Frequencies --   1150.6761              1159.4924              1167.8462
 Red. masses --      3.0781                 4.9746                 2.9515
 Frc consts  --      2.4012                 3.9404                 2.3718
 IR Inten    --     96.8543               290.1968                61.9233

                     43                     44                     45
                      A                      A                      A
 Frequencies --   1175.6870              1183.6528              1201.3462
 Red. masses --      2.6994                 4.2042                 3.9420
 Frc consts  --      2.1984                 3.4704                 3.3520
 IR Inten    --    121.6874                97.9527                24.1373

                     46                     47                     48
                      A                      A                      A
 Frequencies --   1257.2150              1260.1779              1262.1910
 Red. masses --      1.1657                 1.1879                 1.1959
 Frc consts  --      1.0856                 1.1114                 1.1226
 IR Inten    --      2.7093                22.3736                 0.9188

                     49                     50                     51
                      A                      A                      A
 Frequencies --   1263.1722              1274.8740              1323.9318
 Red. masses --      1.2030                 1.1069                 1.0894
 Frc consts  --      1.1310                 1.0599                 1.1251
 IR Inten    --     16.4322                 2.1460                54.0992

                     52                     53                     54
                      A                      A                      A
 Frequencies --   1374.6611              1380.9076              1391.3650
 Red. masses --      1.3087                 1.3310                 1.3297
 Frc consts  --      1.4571                 1.4954                 1.5167
 IR Inten    --      7.3194                13.3726                12.1035

                     55                     56                     57
                      A                      A                      A
 Frequencies --   1394.3036              1399.5378              1408.5833
 Red. masses --      1.3227                 1.2536                 1.2883
 Frc consts  --      1.5151                 1.4467                 1.5061
 IR Inten    --     10.5636                 1.8875                12.0133

                     58                     59                     60
                      A                      A                      A
 Frequencies --   1500.1741              1507.3376              1507.8510
 Red. masses --      1.1006                 1.1109                 1.0902
 Frc consts  --      1.4593                 1.4871                 1.4604
 IR Inten    --     10.6371                10.3992                 1.0566

                     61                     62                     63
                      A                      A                      A
 Frequencies --   1512.3500              1514.9077              1516.2474
 Red. masses --      1.1420                 1.0962                 1.0877
 Frc consts  --      1.5389                 1.4822                 1.4733
 IR Inten    --     22.8358                 4.6473                 3.2673

                     64                     65                     66
                      A                      A                      A
 Frequencies --   1517.4432              2882.2869              2907.1481
 Red. masses --      1.1004                 1.0732                 1.0721
 Frc consts  --      1.4928                 5.2529                 5.3386
 IR Inten    --      1.6368               134.0566               137.4269

                     67                     68                     69
                      A                      A                      A
 Frequencies --   2944.9342              2956.2955              2973.2183
 Red. masses --      1.0646                 1.0607                 1.0768
 Frc consts  --      5.4397                 5.4620                 5.6084
 IR Inten    --     85.3446               116.4967               253.4098

                     70                     71                     72
                      A                      A                      A
 Frequencies --   2975.7315              2985.9429              2990.2893
 Red. masses --      1.0653                 1.1034                 1.0922
 Frc consts  --      5.5577                 5.7963                 5.7541
 IR Inten    --    123.1835               117.2564               225.7484

                     73                     74                     75
                      A                      A                      A
 Frequencies --   3002.7675              3015.9993              3045.1821
 Red. masses --      1.0945                 1.0625                 1.1011
 Frc consts  --      5.8147                 5.6941                 6.0161
 IR Inten    --    121.9236                66.9663                18.8981

                     76                     77                     78
                      A                      A                      A
 Frequencies --   3072.7724              3664.3451              3821.0207
 Red. masses --      1.1013                 1.0674                 1.0670
 Frc consts  --      6.1265                 8.4444                 9.1784
 IR Inten    --     40.0111               584.0181               111.5266

 - Thermochemistry -
 -------------------
 Temperature   298.150 Kelvin.  Pressure   1.00000 Atm.
 Atom     1 has atomic number  6 and mass  12.00000

 Molecular mass:   226.05088 amu.
 Principal axes and moments of inertia in atomic units:
                           1         2         3
     Eigenvalues --  2050.281845263.550815777.84100
           X            0.99997   0.00666  -0.00455
           Y           -0.00686   0.99896  -0.04503
           Z            0.00424   0.04506   0.99898
 This molecule is an asymmetric top.
 Rotational symmetry number  1.
 Warning -- assumption of classical behavior for rotation
           may cause significant error
 Rotational temperatures (Kelvin)      0.04224     0.01646     0.01499
 Rotational constants (GHZ):           0.88024     0.34288     0.31236
 Zero-point vibrational energy     574930.9 (Joules/Mol)
                                  137.41178 (Kcal/Mol)
 Warning -- explicit consideration of  24 degrees of freedom as
           vibrations may cause significant error
 Vibrational temperatures:     29.33    40.27    42.78    61.52    77.58
          (Kelvin)            143.82   173.91   197.18   207.36   222.36
                              267.29   312.39   365.63   373.57   394.17
                              461.78   526.83   557.27   580.52   604.96
                              688.12   770.85   859.33   891.27   906.59
                              935.92   957.08   994.28  1091.18  1118.24
                             1294.57  1320.90  1330.01  1343.32  1348.13
                             1376.84  1597.97  1621.08  1649.21  1655.57
                             1668.25  1680.27  1691.55  1703.01  1728.47
                             1808.85  1813.11  1816.01  1817.42  1834.26
                             1904.84  1977.83  1986.82  2001.86  2006.09
                             2013.62  2026.64  2158.42  2168.72  2169.46
                             2175.93  2179.61  2181.54  2183.26  4146.97
                             4182.74  4237.10  4253.45  4277.80  4281.41
                             4296.11  4302.36  4320.31  4339.35  4381.34
                             4421.03  5272.18  5497.60

 Zero-point correction=                           0.218980 (Hartree/Particle)
 Thermal correction to Energy=                    0.235789
 Thermal correction to Enthalpy=                  0.236733
 Thermal correction to Gibbs Free Energy=         0.171314
 Sum of electronic and zero-point Energies=          -1053.111175
 Sum of electronic and thermal Energies=             -1053.094366
 Sum of electronic and thermal Enthalpies=           -1053.093422
 Sum of electronic and thermal Free Energies=        -1053.158841

                     E (Thermal)             CV                S
                      KCal/Mol        Cal/Mol-Kelvin    Cal/Mol-Kelvin
 Total                  147.960             58.504            137.685
 Electronic               0.000              0.000              0.000
 Translational            0.889              2.981             42.149
 Rotational               0.889              2.981             32.500
 Vibrational            146.182             52.542             63.036
 Vibration     1          0.593              1.986              6.596
 Vibration     2          0.593              1.984              5.967
 Vibration     3          0.594              1.984              5.847
 Vibration     4          0.595              1.980              5.127
 Vibration     5          0.596              1.976              4.668
 Vibration     6          0.604              1.949              3.455
 Vibration     7          0.609              1.932              3.086
 Vibration     8          0.614              1.916              2.845
 Vibration     9          0.616              1.909              2.748
 Vibration    10          0.620              1.898              2.615
 Vibration    11          0.632              1.859              2.270
 Vibration    12          0.646              1.815              1.983
 Vibration    13          0.665              1.756              1.702
 Vibration    14          0.668              1.746              1.664
 Vibration    15          0.676              1.721              1.571
 Vibration    16          0.706              1.633              1.305
 Vibration    17          0.739              1.542              1.096
 Vibration    18          0.756              1.497              1.010
 Vibration    19          0.769              1.463              0.950
 Vibration    20          0.783              1.426              0.890
 Vibration    21          0.835              1.298              0.715
 Vibration    22          0.891              1.171              0.574
 Vibration    23          0.955              1.038              0.454
 Vibration    24          0.979              0.991              0.417

                           ! Non-Optimized Parameters !
 Normal termination of Gaussian 16 at Wed Feb 21 04:39:47 2024.
