 Gaussian 16, Revision C.01,
 Gaussian 16:  ES64L-G16RevC.01  3-Jul-2019

 ---------------------------------------------
 # opt freq wb97xd/def2tzvpp geom=connectivity
 ---------------------------------------------

 convert QmonoL to QbiL attacking OH deprotonated TS to QbiLmonoL to Qb
  iL2
 ----------------------------------------------------------------------
 Symbolic Z-matrix:
 Charge = -1 Multiplicity = 1

 SCF Done:  E(RwB97XD) =  -823.738246227     A.U. after   14 cycles
 SCF Done:  E(RwB97XD) =  -823.733800843     A.U. after   13 cycles
 SCF Done:  E(RwB97XD) =  -823.738230074     A.U. after   13 cycles
 SCF Done:  E(RwB97XD) =  -823.738969302     A.U. after   10 cycles
 SCF Done:  E(RwB97XD) =  -823.741072534     A.U. after   12 cycles
 SCF Done:  E(RwB97XD) =  -823.742785149     A.U. after   13 cycles
 SCF Done:  E(RwB97XD) =  -823.743373143     A.U. after   13 cycles
 SCF Done:  E(RwB97XD) =  -823.743909728     A.U. after   12 cycles
 SCF Done:  E(RwB97XD) =  -823.743817231     A.U. after   13 cycles
 SCF Done:  E(RwB97XD) =  -823.744108355     A.U. after   11 cycles
 SCF Done:  E(RwB97XD) =  -823.744132702     A.U. after   11 cycles
 SCF Done:  E(RwB97XD) =  -823.744142942     A.U. after   10 cycles
 SCF Done:  E(RwB97XD) =  -823.744150208     A.U. after   10 cycles
 SCF Done:  E(RwB97XD) =  -823.744158714     A.U. after   10 cycles
 SCF Done:  E(RwB97XD) =  -823.744163664     A.U. after   10 cycles
 SCF Done:  E(RwB97XD) =  -823.744168048     A.U. after   10 cycles
 SCF Done:  E(RwB97XD) =  -823.744169998     A.U. after   10 cycles
 SCF Done:  E(RwB97XD) =  -823.744170075     A.U. after    7 cycles
 Optimization completed.
    -- Stationary point found.
 Normal termination of Gaussian 16 at Sun Mar 10 20:47:47 2024.

 ----------------------------------------------------------------------
 #N Geom=AllCheck Guess=TCheck SCRF=Check GenChk RwB97XD/def2TZVPP Freq
 ----------------------------------------------------------------------

 ----------------------------------------------------------------------
 convert QmonoL to QbiL attacking OH deprotonated TS to QbiLmonoL to Qb
  iL2
 ----------------------------------------------------------------------
 Charge = -1 Multiplicity = 1

                         Standard orientation:
 ---------------------------------------------------------------------
 Center     Atomic      Atomic             Coordinates (Angstroms)
 Number     Number       Type             X           Y           Z
 ---------------------------------------------------------------------
      1         14           0        0.349386    0.363704    0.004545
      2          8           0        1.401631   -0.118524    1.241114
      3          8           0       -0.520657    1.613105    0.282595
      4          1           0       -2.100865    1.232423    0.317826
      5          8           0        1.550639    0.404341   -1.178154
      6          8           0       -0.525199   -0.989099   -0.433547
      7          6           0       -1.789583   -1.311401    0.082192
      8          1           0       -1.779435   -1.325133    1.180796
      9          1           0       -2.021912   -2.328411   -0.258908
     10          6           0       -2.919708   -0.388820   -0.371841
     11          1           0       -2.801334   -0.236609   -1.457507
     12          1           0       -3.865393   -0.925692   -0.220667
     13          8           0       -3.011199    0.818071    0.318279
     14          6           0        2.805417    0.100531   -0.637254
     15          1           0        3.389380   -0.499667   -1.344316
     16          1           0        3.364366    1.025046   -0.434169
     17          6           0        2.559852   -0.661622    0.674247
     18          1           0        2.422145   -1.732253    0.462666
     19          1           0        3.404062   -0.556845    1.364284
 ---------------------------------------------------------------------

 SCF Done:  E(RwB97XD) =  -823.744170075     A.U. after    1 cycles

 The electronic state is 1-A.
 Alpha  occ. eigenvalues --  -66.10523 -19.08476 -19.08384 -19.07931 -19.06033
 Alpha  occ. eigenvalues --  -18.99044 -10.19825 -10.19744 -10.18567 -10.17591
 Alpha  occ. eigenvalues --   -5.22410  -3.57063  -3.56921  -3.56661  -0.99361
 Alpha  occ. eigenvalues --   -0.95804  -0.93648  -0.93288  -0.81351  -0.68784
 Alpha  occ. eigenvalues --   -0.67561  -0.56890  -0.55954  -0.46865  -0.44691
 Alpha  occ. eigenvalues --   -0.43742  -0.42975  -0.41409  -0.40201  -0.37032
 Alpha  occ. eigenvalues --   -0.35944  -0.34813  -0.33390  -0.29780  -0.26451
 Alpha  occ. eigenvalues --   -0.25901  -0.25323  -0.24824  -0.22785  -0.22013
 Alpha  occ. eigenvalues --   -0.20533  -0.18800  -0.17576  -0.16282
 Alpha virt. eigenvalues --    0.24045   0.25450   0.27067   0.27291   0.28472
 Alpha virt. eigenvalues --    0.29051   0.31325   0.31783   0.32975   0.33674
 Alpha virt. eigenvalues --    0.34148   0.34527   0.36405   0.37733   0.39452

 Mulliken charges:
               1
     1  Si   0.749417
     2  O   -0.441613
     3  O   -0.727685
     4  H    0.251070
     5  O   -0.441594
     6  O   -0.406972
     7  C    0.053975
     8  H    0.042770
     9  H    0.022847
    10  C    0.082898
    11  H    0.022410
    12  H    0.019973
    13  O   -0.470241
    14  C    0.077643
    15  H    0.020336
    16  H    0.028132
    17  C    0.054605
    18  H    0.032139
    19  H    0.029891
 Sum of Mulliken charges =  -1.00000

 Dipole moment (field-independent basis, Debye):
    X=              3.3190    Y=             -4.5274    Z=             -0.6688  Tot=              5.6533
 Quadrupole moment (field-independent basis, Debye-Ang):
   XX=            -82.4442   YY=            -78.1376   ZZ=            -74.9583
   XY=              5.9930   XZ=              2.4160   YZ=             -1.8518

  Exact polarizability:     108.011       1.041      83.430       0.116       0.088      76.441
 Approx polarizability:      97.854      -0.561      90.456      -1.102       1.783      86.674

                      1                      2                      3
                      A                      A                      A
 Frequencies --     27.3747                60.1255                84.3341
 Red. masses --      6.9149                 3.3074                 3.1060
 Frc consts  --      0.0031                 0.0070                 0.0130
 IR Inten    --      0.6864                 3.9922                 3.4776

                      4                      5                      6
                      A                      A                      A
 Frequencies --    177.1381               195.4327               240.8143
 Red. masses --      2.8028                 3.6474                 5.4942
 Frc consts  --      0.0518                 0.0821                 0.1877
 IR Inten    --      1.4728                 7.6053                 8.0174

                      7                      8                      9
                      A                      A                      A
 Frequencies --    260.7291               279.6634               362.7782
 Red. masses --      5.1245                 3.2992                 7.8324
 Frc consts  --      0.2052                 0.1520                 0.6073
 IR Inten    --      1.9502                 5.0636                13.3065

                     10                     11                     12
                      A                      A                      A
 Frequencies --    392.8359               432.4896               509.5746
 Red. masses --      4.2286                11.1268                 3.4433
 Frc consts  --      0.3845                 1.2262                 0.5268
 IR Inten    --      6.8297                68.2147                17.1808

                     13                     14                     15
                      A                      A                      A
 Frequencies --    549.9161               614.9467               690.0089
 Red. masses --      4.7426                 2.9051                 8.1422
 Frc consts  --      0.8450                 0.6473                 2.2840
 IR Inten    --     40.3885                 0.8768                30.6139

                     16                     17                     18
                      A                      A                      A
 Frequencies --    747.2172               780.7609               883.6233
 Red. masses --      5.4317                 8.3547                 2.7658
 Frc consts  --      1.7868                 3.0007                 1.2723
 IR Inten    --    132.2464               187.0535                80.9829

                     19                     20                     21
                      A                      A                      A
 Frequencies --    905.6793               925.8027               945.2466
 Red. masses --      1.7579                 2.5287                 1.4670
 Frc consts  --      0.8495                 1.2770                 0.7723
 IR Inten    --     29.0285                18.2717                44.1373

                     22                     23                     24
                      A                      A                      A
 Frequencies --    957.7212              1111.9470              1136.2866
 Red. masses --      1.3084                 2.2939                 4.2432
 Frc consts  --      0.7071                 1.6710                 3.2279
 IR Inten    --     80.1363                 5.2876               198.7104

                     25                     26                     27
                      A                      A                      A
 Frequencies --   1142.2352              1156.0181              1164.8152
 Red. masses --      5.5756                 6.2084                 2.5790
 Frc consts  --      4.2860                 4.8883                 2.0617
 IR Inten    --     32.5267               179.8818               287.2420

                     28                     29                     30
                      A                      A                      A
 Frequencies --   1169.4831              1180.6884              1260.4338
 Red. masses --      4.3624                 4.2255                 1.1385
 Frc consts  --      3.5153                 3.4705                 1.0657
 IR Inten    --    213.2910                67.9809                 2.2509

                     31                     32                     33
                      A                      A                      A
 Frequencies --   1265.1215              1269.7463              1325.9665
 Red. masses --      1.1674                 1.0981                 1.1382
 Frc consts  --      1.1009                 1.0431                 1.1791
 IR Inten    --     16.3185                 0.7262                17.4635

                     34                     35                     36
                      A                      A                      A
 Frequencies --   1383.3207              1396.7880              1397.7081
 Red. masses --      1.2898                 1.2771                 1.2775
 Frc consts  --      1.4541                 1.4680                 1.4705
 IR Inten    --      4.4163                11.8867                 7.1051

                     37                     38                     39
                      A                      A                      A
 Frequencies --   1408.0840              1491.8140              1498.4823
 Red. masses --      1.3552                 1.0946                 1.0865
 Frc consts  --      1.5831                 1.4352                 1.4375
 IR Inten    --     24.1652                 3.2073                 2.2896

                     40                     41                     42
                      A                      A                      A
 Frequencies --   1513.8105              1521.8856              1582.5218
 Red. masses --      1.0881                 1.0919                 1.1218
 Frc consts  --      1.4692                 1.4900                 1.6553
 IR Inten    --      0.3887                 1.3488                60.8271

                     43                     44                     45
                      A                      A                      A
 Frequencies --   2939.9255              2967.4192              2975.0535
 Red. masses --      1.0645                 1.0719                 1.0621
 Frc consts  --      5.4208                 5.5610                 5.5386
 IR Inten    --    192.3641                74.9704               130.3631

                     46                     47                     48
                      A                      A                      A
 Frequencies --   2978.3354              3007.2611              3021.3174
 Red. masses --      1.0608                 1.0926                 1.1047
 Frc consts  --      5.5441                 5.8217                 5.9413
 IR Inten    --     31.0599               396.9065               161.3046

                     49                     50                     51
                      A                      A                      A
 Frequencies --   3027.4284              3039.5332              3081.3218
 Red. masses --      1.0896                 1.1005                 1.0747
 Frc consts  --      5.8837                 5.9901                 6.0119
 IR Inten    --    144.4471               110.5539               964.6341

 - Thermochemistry -
 -------------------
 Temperature   298.150 Kelvin.  Pressure   1.00000 Atm.
 Atom     1 has atomic number 14 and mass  27.97693

 Molecular mass:   165.02193 amu.
 Principal axes and moments of inertia in atomic units:
                           1         2         3
     Eigenvalues --   675.404552459.977272616.65127
           X            0.99995   0.00882   0.00420
           Y           -0.00869   0.99952  -0.02988
           Z           -0.00446   0.02985   0.99954
 This molecule is an asymmetric top.
 Rotational symmetry number  1.
 Warning -- assumption of classical behavior for rotation
           may cause significant error
 Rotational temperatures (Kelvin)      0.12824     0.03521     0.03310
 Rotational constants (GHZ):           2.67209     0.73364     0.68971
 Zero-point vibrational energy     385430.6 (Joules/Mol)
                                   92.12013 (Kcal/Mol)
 Warning -- explicit consideration of  14 degrees of freedom as
           vibrations may cause significant error
 Vibrational temperatures:     39.39    86.51   121.34   254.86   281.18
          (Kelvin)            346.48   375.13   402.37   521.96   565.20
                              622.26   733.16   791.21   884.77   992.77
                             1075.08  1123.34  1271.34  1303.07  1332.02
                             1360.00  1377.95  1599.84  1634.86  1643.42
                             1663.25  1675.91  1682.63  1698.75  1813.48
                             1820.23  1826.88  1907.77  1990.29  2009.67
                             2010.99  2025.92  2146.39  2155.98  2178.04
                             2189.65  2276.90  4229.90  4269.45  4280.44
                             4285.16  4326.78  4347.00  4355.79  4373.21
                             4433.33

 Zero-point correction=                           0.146803 (Hartree/Particle)
 Thermal correction to Energy=                    0.156970
 Thermal correction to Enthalpy=                  0.157914
 Thermal correction to Gibbs Free Energy=         0.109721
 Sum of electronic and zero-point Energies=           -823.597367
 Sum of electronic and thermal Energies=              -823.587200
 Sum of electronic and thermal Enthalpies=            -823.586256
 Sum of electronic and thermal Free Energies=         -823.634449

                     E (Thermal)             CV                S
                      KCal/Mol        Cal/Mol-Kelvin    Cal/Mol-Kelvin
 Total                   98.500             36.341            101.430
 Electronic               0.000              0.000              0.000
 Translational            0.889              2.981             41.211
 Rotational               0.889              2.981             29.854
 Vibrational             96.723             30.379             30.365
 Vibration     1          0.593              1.984              6.011
 Vibration     2          0.597              1.973              4.453
 Vibration     3          0.601              1.960              3.787
 Vibration     4          0.628              1.870              2.358
 Vibration     5          0.636              1.846              2.176
 Vibration     6          0.658              1.778              1.797
 Vibration     7          0.669              1.745              1.657
 Vibration     8          0.680              1.711              1.536
 Vibration     9          0.737              1.549              1.110
 Vibration    10          0.760              1.485              0.989
 Vibration    11          0.793              1.399              0.851
 Vibration    12          0.865              1.229              0.635
 Vibration    13          0.905              1.140              0.544
 Vibration    14          0.974              1.000              0.425

                           ! Non-Optimized Parameters !
 Normal termination of Gaussian 16 at Sun Mar 10 21:38:44 2024.
