 Gaussian 16, Revision C.01,
 Gaussian 16:  ES64L-G16RevC.01  3-Jul-2019

 ----------------------------------------------------
 # opt freq wb97xd/def2tzvpp geom=AllCheck Guess=Read
 ----------------------------------------------------

 ----------------------------------------------------------------------
 IRC Attempt EGOH on deprotonated axial silicic acid trig bypryamid TS
 Deprotonated reactant opt from forward IRC i switched labels cuz yeah
 ----------------------------------------------------------------------
 Charge = -1 Multiplicity = 1

 SCF Done:  E(RwB97XD) =  -822.824175803     A.U. after    1 cycles
 SCF Done:  E(RwB97XD) =  -822.725900618     A.U. after   14 cycles
 SCF Done:  E(RwB97XD) =  -822.821450086     A.U. after   12 cycles
 SCF Done:  E(RwB97XD) =  -822.824176035     A.U. after    8 cycles
 SCF Done:  E(RwB97XD) =  -822.824179047     A.U. after    9 cycles
 SCF Done:  E(RwB97XD) =  -822.824178222     A.U. after    9 cycles
 SCF Done:  E(RwB97XD) =  -822.824175365     A.U. after   10 cycles
 SCF Done:  E(RwB97XD) =  -822.824183818     A.U. after    9 cycles
 SCF Done:  E(RwB97XD) =  -822.824184919     A.U. after    8 cycles
 Optimization completed.
    -- Stationary point found.
 Normal termination of Gaussian 16 at Thu Feb 15 02:38:42 2024.

 ----------------------------------------------------------------------
 #N Geom=AllCheck Guess=TCheck SCRF=Check GenChk RwB97XD/def2TZVPP Freq
 ----------------------------------------------------------------------

 ----------------------------------------------------------------------
 IRC Attempt EGOH on deprotonated axial silicic acid trig bypryamid TS
 Deprotonated reactant opt from forward IRC i switched labels cuz yeah
 ----------------------------------------------------------------------
 Charge = -1 Multiplicity = 1

                         Standard orientation:
 ---------------------------------------------------------------------
 Center     Atomic      Atomic             Coordinates (Angstroms)
 Number     Number       Type             X           Y           Z
 ---------------------------------------------------------------------
      1         14           0        1.373503   -0.051665    0.087419
      2          8           0        0.580454   -1.085733    0.956741
      3          8           0        2.958090   -0.485297   -0.182169
      4          1           0        3.099741   -1.355294    0.184081
      5          8           0        0.606444    0.162969   -1.404317
      6          1           0       -0.002619   -0.568423   -1.545550
      7          8           0        1.524319    1.513363    0.630179
      8          1           0        0.703843    1.998868    0.559776
      9          6           0       -2.624245   -0.701705    0.145322
     10          1           0       -3.096602   -1.174932    1.023397
     11          1           0       -3.394566   -0.609066   -0.628678
     12          6           0       -2.188827    0.694912    0.572971
     13          1           0       -1.410012    0.593282    1.337753
     14          1           0       -3.047542    1.201030    1.025279
     15          8           0       -1.598150   -1.499454   -0.366465
     16          8           0       -1.751552    1.519063   -0.488098
     17          1           0       -0.971235    1.108400   -0.892991
     18          1           0       -0.788463   -1.429087    0.236343
 ---------------------------------------------------------------------

 SCF Done:  E(RwB97XD) =  -822.824184919     A.U. after    1 cycles

 The electronic state is 1-A.
 Alpha  occ. eigenvalues --  -66.10943 -19.10390 -19.08210 -19.08194 -19.07926
 Alpha  occ. eigenvalues --  -19.07893 -18.99503 -10.18927 -10.18841  -5.22758
 Alpha  occ. eigenvalues --   -3.57332  -3.57292  -3.57082  -0.98679  -0.95847
 Alpha  occ. eigenvalues --   -0.95482  -0.93044  -0.92506  -0.81512  -0.69165
 Alpha  occ. eigenvalues --   -0.57561  -0.49262  -0.47102  -0.43379  -0.42860
 Alpha  occ. eigenvalues --   -0.40940  -0.40588  -0.38368  -0.35135  -0.34344
 Alpha  occ. eigenvalues --   -0.31460  -0.30898  -0.29308  -0.27836  -0.26681
 Alpha  occ. eigenvalues --   -0.26137  -0.24088  -0.23488  -0.22434  -0.20039
 Alpha  occ. eigenvalues --   -0.17957  -0.17468
 Alpha virt. eigenvalues --    0.23989   0.25336   0.27512   0.28566   0.30147
 Alpha virt. eigenvalues --    0.30986   0.32643   0.34246   0.34972   0.35415
 Alpha virt. eigenvalues --    0.36833   0.38739   0.39397   0.40947   0.42591

 Mulliken charges:
               1
     1  Si   0.770768
     2  O   -0.721420
     3  O   -0.460967
     4  H    0.160295
     5  O   -0.458609
     6  H    0.179830
     7  O   -0.448809
     8  H    0.163846
     9  C    0.081190
    10  H    0.013860
    11  H    0.034319
    12  C    0.036054
    13  H    0.067964
    14  H    0.041925
    15  O   -0.483833
    16  O   -0.438588
    17  H    0.215040
    18  H    0.247134
 Sum of Mulliken charges =  -1.00000

 Dipole moment (field-independent basis, Debye):
    X=             -2.4807    Y=              0.1114    Z=              0.1928  Tot=              2.4907
 Quadrupole moment (field-independent basis, Debye-Ang):
   XX=            -80.1409   YY=            -72.7480   ZZ=            -69.7068
   XY=             -4.9174   XZ=             -2.4747   YZ=              3.0689

  Exact polarizability:      90.207      -0.672      72.298      -1.988       0.208      67.538
 Approx polarizability:      84.168      -0.899      77.392      -1.390      -0.765      75.174

                      1                      2                      3
                      A                      A                      A
 Frequencies --     41.4344                68.3631               100.4444
 Red. masses --      7.0292                 5.8296                 5.4755
 Frc consts  --      0.0071                 0.0161                 0.0325
 IR Inten    --      0.4207                 3.4441                 1.6903

                      4                      5                      6
                      A                      A                      A
 Frequencies --    143.2312               158.5657               209.3352
 Red. masses --      4.2728                 5.4132                 2.8631
 Frc consts  --      0.0516                 0.0802                 0.0739
 IR Inten    --      0.9108                16.5042                15.2350

                      7                      8                      9
                      A                      A                      A
 Frequencies --    228.4098               239.6990               254.4929
 Red. masses --      4.5413                 2.1047                 2.5642
 Frc consts  --      0.1396                 0.0712                 0.0979
 IR Inten    --     10.8722                28.3105                 3.3798

                     10                     11                     12
                      A                      A                      A
 Frequencies --    301.1189               350.1439               360.3509
 Red. masses --      2.0061                 2.8350                 1.5927
 Frc consts  --      0.1072                 0.2048                 0.1219
 IR Inten    --     48.7595                 4.5770                29.8259

                     13                     14                     15
                      A                      A                      A
 Frequencies --    383.5634               406.4468               444.6082
 Red. masses --      4.0233                 6.5416                 7.6791
 Frc consts  --      0.3487                 0.6367                 0.8944
 IR Inten    --     19.6094                70.7526               126.9081

                     16                     17                     18
                      A                      A                      A
 Frequencies --    531.3496               561.2803               737.4091
 Red. masses --      2.0740                 1.2504                 5.1620
 Frc consts  --      0.3450                 0.2321                 1.6538
 IR Inten    --      9.2931               118.8959                40.6428

                     19                     20                     21
                      A                      A                      A
 Frequencies --    768.1909               833.4996               849.3323
 Red. masses --      1.2853                 5.3116                 5.7384
 Frc consts  --      0.4469                 2.1741                 2.4389
 IR Inten    --     76.5559               329.4241               341.7283

                     22                     23                     24
                      A                      A                      A
 Frequencies --    868.3389               913.8771               925.1813
 Red. masses --      2.6057                 1.7876                 1.2810
 Frc consts  --      1.1576                 0.8796                 0.6460
 IR Inten    --     24.8533                21.4483                43.1534

                     25                     26                     27
                      A                      A                      A
 Frequencies --    979.9845               999.6582              1092.0395
 Red. masses --      1.3243                 1.1676                 1.9719
 Frc consts  --      0.7493                 0.6874                 1.3855
 IR Inten    --    109.6989                65.6895               296.8748

                     28                     29                     30
                      A                      A                      A
 Frequencies --   1101.5484              1128.0959              1143.7096
 Red. masses --      3.1245                 3.2569                 1.8831
 Frc consts  --      2.2337                 2.4420                 1.4513
 IR Inten    --     47.6669               181.9026               102.8572

                     31                     32                     33
                      A                      A                      A
 Frequencies --   1174.2495              1260.1302              1299.1210
 Red. masses --      2.3045                 1.1040                 1.1121
 Frc consts  --      1.8722                 1.0329                 1.1059
 IR Inten    --     43.4588                13.9417                 4.7543

                     34                     35                     36
                      A                      A                      A
 Frequencies --   1400.7645              1426.6146              1463.1364
 Red. masses --      1.2922                 1.2683                 1.1757
 Frc consts  --      1.4938                 1.5208                 1.4829
 IR Inten    --      9.8075                14.8971                48.5846

                     37                     38                     39
                      A                      A                      A
 Frequencies --   1496.6868              1505.8641              1563.4366
 Red. masses --      1.0799                 1.1040                 1.1164
 Frc consts  --      1.4253                 1.4750                 1.6077
 IR Inten    --     10.0637                 3.3809                47.2038

                     40                     41                     42
                      A                      A                      A
 Frequencies --   2840.2080              2935.2912              3016.9072
 Red. masses --      1.0807                 1.0740                 1.0609
 Frc consts  --      5.1365                 5.4523                 5.6889
 IR Inten    --   1607.1418                89.7413                48.7351

                     43                     44                     45
                      A                      A                      A
 Frequencies --   3030.8697              3066.2644              3648.4914
 Red. masses --      1.0861                 1.1053                 1.0685
 Frc consts  --      5.8783                 6.1229                 8.3803
 IR Inten    --     46.8855                70.3436               408.6530

                     46                     47                     48
                      A                      A                      A
 Frequencies --   3837.4393              3943.0286              3972.1124
 Red. masses --      1.0653                 1.0659                 1.0653
 Frc consts  --      9.2425                 9.7640                 9.9032
 IR Inten    --    157.3850                53.8502                47.2893

 - Thermochemistry -
 -------------------
 Temperature   298.150 Kelvin.  Pressure   1.00000 Atm.
 Atom     1 has atomic number 14 and mass  27.97693

 Molecular mass:   157.01684 amu.
 Principal axes and moments of inertia in atomic units:
                           1         2         3
     Eigenvalues --   816.733612094.328062401.95736
           X            0.99994  -0.00399  -0.01003
           Y            0.00417   0.99981   0.01886
           Z            0.00995  -0.01890   0.99977
 This molecule is an asymmetric top.
 Rotational symmetry number  1.
 Warning -- assumption of classical behavior for rotation
           may cause significant error
 Rotational temperatures (Kelvin)      0.10605     0.04136     0.03606
 Rotational constants (GHZ):           2.20971     0.86173     0.75136
 Zero-point vibrational energy     358905.5 (Joules/Mol)
                                   85.78048 (Kcal/Mol)
 Warning -- explicit consideration of  17 degrees of freedom as
           vibrations may cause significant error
 Vibrational temperatures:     59.61    98.36   144.52   206.08   228.14
          (Kelvin)            301.19   328.63   344.87   366.16   433.24
                              503.78   518.46   551.86   584.79   639.69
                              764.49   807.56  1060.97  1105.26  1199.22
                             1222.00  1249.35  1314.87  1331.13  1409.98
                             1438.29  1571.20  1584.88  1623.08  1645.54
                             1689.48  1813.05  1869.15  2015.39  2052.58
                             2105.13  2153.40  2166.60  2249.44  4086.43
                             4223.23  4340.66  4360.75  4411.67  5249.37
                             5521.22  5673.14  5714.98

 Zero-point correction=                           0.136700 (Hartree/Particle)
 Thermal correction to Energy=                    0.148386
 Thermal correction to Enthalpy=                  0.149330
 Thermal correction to Gibbs Free Energy=         0.098999
 Sum of electronic and zero-point Energies=           -822.687485
 Sum of electronic and thermal Energies=              -822.675799
 Sum of electronic and thermal Enthalpies=            -822.674855
 Sum of electronic and thermal Free Energies=         -822.725186

                     E (Thermal)             CV                S
                      KCal/Mol        Cal/Mol-Kelvin    Cal/Mol-Kelvin
 Total                   93.113             41.261            105.930
 Electronic               0.000              0.000              0.000
 Translational            0.889              2.981             41.063
 Rotational               0.889              2.981             29.798
 Vibrational             91.336             35.299             35.070
 Vibration     1          0.594              1.981              5.189
 Vibration     2          0.598              1.969              4.200
 Vibration     3          0.604              1.949              3.446
 Vibration     4          0.616              1.910              2.760
 Vibration     5          0.621              1.893              2.567
 Vibration     6          0.642              1.826              2.049
 Vibration     7          0.651              1.798              1.891
 Vibration     8          0.657              1.780              1.805
 Vibration     9          0.665              1.755              1.699
 Vibration    10          0.693              1.672              1.411
 Vibration    11          0.727              1.575              1.166
 Vibration    12          0.735              1.554              1.121
 Vibration    13          0.753              1.505              1.025
 Vibration    14          0.771              1.456              0.939
 Vibration    15          0.804              1.373              0.812
 Vibration    16          0.886              1.181              0.584
 Vibration    17          0.917              1.115              0.521

                           ! Non-Optimized Parameters !
 Normal termination of Gaussian 16 at Thu Feb 15 03:27:55 2024.
