 Gaussian 16, Revision C.01,
 Gaussian 16:  ES64L-G16RevC.01  3-Jul-2019

 ----------------------------------------------------------------------
 # irc=(forward,calcfc,maxpoints=100,maxcycle=100) wb97xd/def2tzvpp geo
 m=connectivity
 ----------------------------------------------------------------------

 irc for proton transfer with potential SN1 like transition state in L
 attack on QbiL
 ----------------------------------------------------------------------
 Symbolic Z-matrix:
 Charge =  0 Multiplicity = 1

 SCF Done:  E(RwB97XD) =  -900.682765970     A.U. after   13 cycles
 SCF Done:  E(RwB97XD) =  -900.683083898     A.U. after   11 cycles
 SCF Done:  E(RwB97XD) =  -900.684174376     A.U. after   11 cycles
 SCF Done:  E(RwB97XD) =  -900.686116591     A.U. after   11 cycles
 SCF Done:  E(RwB97XD) =  -900.688775406     A.U. after   11 cycles
 SCF Done:  E(RwB97XD) =  -900.691913664     A.U. after   11 cycles
 SCF Done:  E(RwB97XD) =  -900.695118094     A.U. after   11 cycles
 SCF Done:  E(RwB97XD) =  -900.698106522     A.U. after   11 cycles
 SCF Done:  E(RwB97XD) =  -900.700808519     A.U. after   10 cycles
 SCF Done:  E(RwB97XD) =  -900.703274109     A.U. after   10 cycles
 SCF Done:  E(RwB97XD) =  -900.750580079     A.U. after    9 cycles
 SCF Done:  E(RwB97XD) =  -900.750703062     A.U. after    9 cycles
 SCF Done:  E(RwB97XD) =  -900.750707249     A.U. after    9 cycles
 SCF Done:  E(RwB97XD) =  -900.750828988     A.U. after    9 cycles
 SCF Done:  E(RwB97XD) =  -900.750950193     A.U. after    9 cycles
 SCF Done:  E(RwB97XD) =  -900.751066383     A.U. after    9 cycles
 SCF Done:  E(RwB97XD) =  -900.751180355     A.U. after    9 cycles
 SCF Done:  E(RwB97XD) =  -900.751286763     A.U. after    9 cycles
 SCF Done:  E(RwB97XD) =  -900.751292234     A.U. after    9 cycles
 SCF Done:  E(RwB97XD) =  -900.751400353     A.U. after    9 cycles

                          Input orientation:
 ---------------------------------------------------------------------
 Center     Atomic      Atomic             Coordinates (Angstroms)
 Number     Number       Type             X           Y           Z
 ---------------------------------------------------------------------
      1         14           0        0.943426    0.856226    0.063505
      2          8           0        1.742172   -0.003953   -1.075829
      3          8           0        1.799844    2.170182    0.520912
      4          1           0        2.741038    2.072824    0.640080
      5          8           0       -0.485137    1.546324   -0.348275
      6          1           0       -0.437596    2.502007   -0.344609
      7          8           0        0.808383   -0.311988    1.203702
      8          6           0       -2.104660   -1.655722   -0.050162
      9          1           0       -1.597864   -2.335089    0.636547
     10          1           0       -2.907435   -2.209091   -0.550262
     11          6           0       -2.692580   -0.485482    0.722441
     12          1           0       -1.937016   -0.070310    1.393852
     13          1           0       -3.531299   -0.836342    1.327098
     14          8           0       -1.142138   -1.237667   -0.996978
     15          1           0       -1.566272   -0.598099   -1.571224
     16          8           0       -3.176766    0.507646   -0.159155
     17          1           0       -2.428786    1.081673   -0.343918
     18          6           0        1.641826   -1.411677    0.853874
     19          1           0        1.152350   -2.338068    1.149889
     20          1           0        2.584610   -1.328434    1.400930
     21          6           0        1.877464   -1.362824   -0.670409
     22          1           0        2.879275   -1.708140   -0.926056
     23          1           0        1.136855   -1.961745   -1.196950
 ---------------------------------------------------------------------

 Alpha  occ. eigenvalues --  -66.31432 -19.27280 -19.25984 -19.25355 -19.25218
 Alpha  occ. eigenvalues --  -19.24689 -19.23547 -10.34331 -10.33600 -10.32014
 Alpha  occ. eigenvalues --  -10.31564  -5.43240  -3.77788  -3.77746  -3.77637
 Alpha  occ. eigenvalues --   -1.16274  -1.13514  -1.13052  -1.10971  -1.10558
 Alpha  occ. eigenvalues --   -1.09706  -0.83853  -0.82839  -0.71986  -0.70871
 Alpha  occ. eigenvalues --   -0.67157  -0.63357  -0.60595  -0.59813  -0.59598
 Alpha  occ. eigenvalues --   -0.58615  -0.56594  -0.54846  -0.52966  -0.50877
 Alpha  occ. eigenvalues --   -0.50487  -0.48876  -0.48260  -0.47632  -0.45373
 Alpha  occ. eigenvalues --   -0.43987  -0.43369  -0.42942  -0.41053  -0.40380
 Alpha  occ. eigenvalues --   -0.39912  -0.37785  -0.36218  -0.34212
 Alpha virt. eigenvalues --    0.08010   0.11122   0.12185   0.13916   0.14611
 Alpha virt. eigenvalues --    0.15758   0.16281   0.16800   0.17645   0.18774
 Alpha virt. eigenvalues --    0.20402   0.20886   0.21660   0.22132   0.23347

 Mulliken charges:
               1
     1  Si   0.819437
     2  O   -0.385827
     3  O   -0.390072
     4  H    0.176193
     5  O   -0.422217
     6  H    0.194064
     7  O   -0.387031
     8  C    0.060367
     9  H    0.050294
    10  H    0.085761
    11  C    0.038494
    12  H    0.078584
    13  H    0.076197
    14  O   -0.375841
    15  H    0.181494
    16  O   -0.402496
    17  H    0.208411
    18  C    0.032231
    19  H    0.069584
    20  H    0.079940
    21  C    0.050546
    22  H    0.076613
    23  H    0.085273
 Sum of Mulliken charges =  -0.00000

 Dipole moment (field-independent basis, Debye):
    X=              2.5695    Y=             -0.4854    Z=              0.7305  Tot=              2.7150
 Quadrupole moment (field-independent basis, Debye-Ang):
   XX=            -71.0328   YY=            -64.6698   ZZ=            -74.2121
   XY=              0.9212   XZ=              1.8531   YZ=             -2.7083

  Exact polarizability:       0.000       0.000       0.000       0.000       0.000       0.000
 Approx polarizability:      94.246      -1.400      97.048      -0.126      -2.570      88.530

 Normal termination of Gaussian 16 at Sat Feb 24 23:59:10 2024.
