 Gaussian 16, Revision C.01,
 Gaussian 16:  ES64L-G16RevC.01  3-Jul-2019

 ---------------------------------------------
 # opt freq wb97xd/def2tzvpp geom=connectivity
 ---------------------------------------------

 ----------------------------------------------
 IRC Forward of possible PL1 collapse to HL1 TS
 ----------------------------------------------
 Symbolic Z-matrix:
 Charge = -2 Multiplicity = 1

 SCF Done:  E(RwB97XD) =  -822.066060751     A.U. after   16 cycles
 SCF Done:  E(RwB97XD) =  -822.059191710     A.U. after   16 cycles
 SCF Done:  E(RwB97XD) =  -822.067121093     A.U. after   15 cycles
 SCF Done:  E(RwB97XD) =  -822.064518333     A.U. after   16 cycles
 SCF Done:  E(RwB97XD) =  -822.069605687     A.U. after   15 cycles
 SCF Done:  E(RwB97XD) =  -822.072725942     A.U. after   14 cycles
 SCF Done:  E(RwB97XD) =  -822.073685481     A.U. after   14 cycles
 SCF Done:  E(RwB97XD) =  -822.074958831     A.U. after   14 cycles
 SCF Done:  E(RwB97XD) =  -822.076528988     A.U. after   14 cycles
 SCF Done:  E(RwB97XD) =  -822.077539934     A.U. after   14 cycles
 SCF Done:  E(RwB97XD) =  -822.078232253     A.U. after   10 cycles
 SCF Done:  E(RwB97XD) =  -822.078234493     A.U. after   10 cycles
 SCF Done:  E(RwB97XD) =  -822.078237312     A.U. after    9 cycles
 SCF Done:  E(RwB97XD) =  -822.078240965     A.U. after   10 cycles
 SCF Done:  E(RwB97XD) =  -822.078245593     A.U. after   10 cycles
 SCF Done:  E(RwB97XD) =  -822.078249203     A.U. after   11 cycles
 SCF Done:  E(RwB97XD) =  -822.078250782     A.U. after    9 cycles
 SCF Done:  E(RwB97XD) =  -822.078251647     A.U. after    9 cycles
 SCF Done:  E(RwB97XD) =  -822.078251902     A.U. after    9 cycles
 Optimization completed.
    -- Stationary point found.
 Normal termination of Gaussian 16 at Sun Feb 11 16:17:35 2024.

 ----------------------------------------------------------------------
 #N Geom=AllCheck Guess=TCheck SCRF=Check GenChk RwB97XD/def2TZVPP Freq
 ----------------------------------------------------------------------

 Structure from the checkpoint file:  "IRC_PmonoL1toHbiL1_forward_productopt.chk"
 ----------------------------------------------
 IRC Forward of possible PL1 collapse to HL1 TS
 ----------------------------------------------
 Charge = -2 Multiplicity = 1

                         Standard orientation:
 ---------------------------------------------------------------------
 Center     Atomic      Atomic             Coordinates (Angstroms)
 Number     Number       Type             X           Y           Z
 ---------------------------------------------------------------------
      1         14           0       -0.957318    0.014955    0.016326
      2          8           0       -0.298820   -0.806610   -1.332126
      3          8           0       -0.452149   -0.809459    1.389875
      4          8           0       -1.856380    1.446945    0.290753
      5          8           0        0.472279    1.230712    0.015582
      6          8           0        2.064077   -1.275470    0.163793
      7          8           0       -2.504489   -0.776854   -0.246823
      8          6           0        2.580716   -0.033317    0.234782
      9          1           0        3.617127    0.063260   -0.222163
     10          1           0        2.715393    0.337282    1.289710
     11          6           0        1.746828    1.051600   -0.478836
     12          1           0        1.730144    0.790603   -1.556556
     13          1           0        2.308623    2.009282   -0.396602
     14          1           0       -2.253558   -1.605728   -0.648654
     15          1           0        0.607169   -1.055132   -1.057897
     16          1           0       -1.165955    2.105676    0.374156
     17          1           0        0.482085   -1.038442    1.205337
 ---------------------------------------------------------------------

 SCF Done:  E(RwB97XD) =  -822.078251902     A.U. after    1 cycles

 The electronic state is 1-A.
 Alpha  occ. eigenvalues --  -65.96975 -18.89978 -18.88371 -18.88136 -18.88021
 Alpha  occ. eigenvalues --  -18.87985 -18.83453 -10.00817 -10.00110  -5.07919
 Alpha  occ. eigenvalues --   -3.42544  -3.42410  -3.42393  -0.78540  -0.74675
 Alpha  occ. eigenvalues --   -0.74496  -0.72435  -0.71386  -0.70349  -0.47764
 Alpha  occ. eigenvalues --   -0.35481  -0.30173  -0.25906  -0.24535  -0.22796
 Alpha  occ. eigenvalues --   -0.21574  -0.20477  -0.17699  -0.16296  -0.15502
 Alpha  occ. eigenvalues --   -0.12071  -0.11491  -0.10201  -0.09479  -0.08152
 Alpha  occ. eigenvalues --   -0.06668  -0.05374  -0.03606  -0.02658  -0.01559
 Alpha  occ. eigenvalues --    0.02564   0.03552
 Alpha virt. eigenvalues --    0.38484   0.41110   0.42459   0.43350   0.44707
 Alpha virt. eigenvalues --    0.46169   0.48886   0.49415   0.51274   0.52526
 Alpha virt. eigenvalues --    0.53320   0.55324   0.56696   0.58703   0.59939

 Mulliken charges:
               1
     1  Si   0.890552
     2  O   -0.581378
     3  O   -0.541460
     4  O   -0.526515
     5  O   -0.554025
     6  O   -0.768957
     7  O   -0.572557
     8  C    0.184595
     9  H   -0.139941
    10  H   -0.096622
    11  C    0.144306
    12  H   -0.046856
    13  H   -0.071738
    14  H    0.125044
    15  H    0.193921
    16  H    0.146340
    17  H    0.215290
 Sum of Mulliken charges =  -2.00000

 Dipole moment (field-independent basis, Debye):
    X=              0.2142    Y=              2.0932    Z=             -0.9994  Tot=              2.3295
 Quadrupole moment (field-independent basis, Debye-Ang):
   XX=           -111.6140   YY=            -78.8787   ZZ=            -76.8061
   XY=              6.2585   XZ=              0.4670   YZ=              1.3781

  Exact polarizability:     102.494       7.066      81.998      -1.374       1.186      76.143
 Approx polarizability:      93.742       4.482      87.354      -1.960       2.574      81.836

                      1                      2                      3
                      A                      A                      A
 Frequencies --     38.5655                89.1033               124.4610
 Red. masses --      5.6095                 5.2556                 4.8590
 Frc consts  --      0.0049                 0.0246                 0.0443
 IR Inten    --      3.1252                 1.6495                10.4341

                      4                      5                      6
                      A                      A                      A
 Frequencies --    168.1262               226.5131               259.6645
 Red. masses --      5.0750                 6.8364                 4.2721
 Frc consts  --      0.0845                 0.2067                 0.1697
 IR Inten    --     13.8083                20.8668                12.3396

                      7                      8                      9
                      A                      A                      A
 Frequencies --    312.3601               328.8280               341.7998
 Red. masses --      3.0067                 3.0356                 3.6699
 Frc consts  --      0.1728                 0.1934                 0.2526
 IR Inten    --      1.2463                39.2994                45.3443

                     10                     11                     12
                      A                      A                      A
 Frequencies --    391.4344               420.4912               436.0001
 Red. masses --      3.1295                 6.8760                 4.8479
 Frc consts  --      0.2825                 0.7163                 0.5430
 IR Inten    --     16.7169                 8.6249                41.0253

                     13                     14                     15
                      A                      A                      A
 Frequencies --    453.7417               470.8121               567.6687
 Red. masses --      2.2226                 7.5807                 2.2169
 Frc consts  --      0.2696                 0.9900                 0.4209
 IR Inten    --     23.4758                 0.7974                19.4148

                     16                     17                     18
                      A                      A                      A
 Frequencies --    610.0818               634.8488               669.8266
 Red. masses --      1.2344                 8.7295                 8.9273
 Frc consts  --      0.2707                 2.0729                 2.3599
 IR Inten    --     54.8179               253.7600                85.2251

                     19                     20                     21
                      A                      A                      A
 Frequencies --    782.7699               803.8238               832.1843
 Red. masses --      1.1371                 4.9343                 4.6320
 Frc consts  --      0.4105                 1.8784                 1.8900
 IR Inten    --      5.5056               220.4484               146.5899

                     22                     23                     24
                      A                      A                      A
 Frequencies --    858.2057               890.4670               942.1651
 Red. masses --      2.5576                 1.3534                 1.8391
 Frc consts  --      1.1099                 0.6323                 0.9618
 IR Inten    --     59.0482               138.8948               119.0570

                     25                     26                     27
                      A                      A                      A
 Frequencies --   1019.3800              1101.8233              1125.1103
 Red. masses --      1.2350                 1.2082                 2.3218
 Frc consts  --      0.7561                 0.8642                 1.7317
 IR Inten    --     81.8091               443.1982                75.9046

                     28                     29                     30
                      A                      A                      A
 Frequencies --   1180.5251              1183.9254              1200.8371
 Red. masses --      2.0573                 1.4531                 3.1588
 Frc consts  --      1.6893                 1.2000                 2.6838
 IR Inten    --     26.2198               163.9761               376.6614

                     31                     32                     33
                      A                      A                      A
 Frequencies --   1252.8507              1274.8382              1290.6076
 Red. masses --      1.1707                 1.0948                 1.2173
 Frc consts  --      1.0827                 1.0483                 1.1946
 IR Inten    --      7.9698               108.7213                 4.5564

                     34                     35                     36
                      A                      A                      A
 Frequencies --   1377.6937              1386.6223              1463.3199
 Red. masses --      1.3113                 1.3321                 1.1088
 Frc consts  --      1.4665                 1.5090                 1.3988
 IR Inten    --     28.2992                39.6286                39.0074

                     37                     38                     39
                      A                      A                      A
 Frequencies --   1473.1694              2536.4773              2658.5509
 Red. masses --      1.0907                 1.0775                 1.0631
 Frc consts  --      1.3946                 4.0846                 4.4272
 IR Inten    --      8.7708               632.8216               386.7068

                     40                     41                     42
                      A                      A                      A
 Frequencies --   2808.5798              2866.2333              3467.7094
 Red. masses --      1.0727                 1.0817                 1.0688
 Frc consts  --      4.9855                 5.2360                 7.5726
 IR Inten    --    445.6871               196.5944                76.8730

                     43                     44                     45
                      A                      A                      A
 Frequencies --   3519.6711              3890.1893              3948.0896
 Red. masses --      1.0678                 1.0638                 1.0646
 Frc consts  --      7.7935                 9.4855                 9.7773
 IR Inten    --    832.8409                46.7805                 3.6773

 - Thermochemistry -
 -------------------
 Temperature   298.150 Kelvin.  Pressure   1.00000 Atm.
 Atom     1 has atomic number 14 and mass  27.97693

 Molecular mass:   156.00902 amu.
 Principal axes and moments of inertia in atomic units:
                           1         2         3
     Eigenvalues --   765.597271724.337431968.99320
           X            0.99964   0.02678   0.00003
           Y           -0.02678   0.99964   0.00114
           Z           -0.00000  -0.00115   1.00000
 This molecule is an asymmetric top.
 Rotational symmetry number  1.
 Warning -- assumption of classical behavior for rotation
           may cause significant error
 Rotational temperatures (Kelvin)      0.11313     0.05023     0.04399
 Rotational constants (GHZ):           2.35730     1.04663     0.91658
 Zero-point vibrational energy     321078.6 (Joules/Mol)
                                   76.73962 (Kcal/Mol)
 Warning -- explicit consideration of  16 degrees of freedom as
           vibrations may cause significant error
 Vibrational temperatures:     55.49   128.20   179.07   241.90   325.90
          (Kelvin)            373.60   449.42   473.11   491.77   563.19
                              604.99   627.31   652.83   677.39   816.75
                              877.77   913.41   963.73  1126.23  1156.52
                             1197.33  1234.77  1281.18  1355.57  1466.66
                             1585.28  1618.78  1698.51  1703.40  1727.74
                             1802.57  1834.21  1856.90  1982.19  1995.04
                             2105.39  2119.56  3649.43  3825.06  4040.92
                             4123.87  4989.26  5064.02  5597.11  5680.42

 Zero-point correction=                           0.122292 (Hartree/Particle)
 Thermal correction to Energy=                    0.132781
 Thermal correction to Enthalpy=                  0.133725
 Thermal correction to Gibbs Free Energy=         0.086342
 Sum of electronic and zero-point Energies=           -821.955960
 Sum of electronic and thermal Energies=              -821.945471
 Sum of electronic and thermal Enthalpies=            -821.944527
 Sum of electronic and thermal Free Energies=         -821.991910

                     E (Thermal)             CV                S
                      KCal/Mol        Cal/Mol-Kelvin    Cal/Mol-Kelvin
 Total                   83.321             38.904             99.726
 Electronic               0.000              0.000              0.000
 Translational            0.889              2.981             41.044
 Rotational               0.889              2.981             29.343
 Vibrational             81.544             32.942             29.339
 Vibration     1          0.594              1.981              5.331
 Vibration     2          0.602              1.957              3.680
 Vibration     3          0.610              1.929              3.030
 Vibration     4          0.625              1.882              2.456
 Vibration     5          0.650              1.801              1.906
 Vibration     6          0.668              1.746              1.664
 Vibration     7          0.701              1.650              1.350
 Vibration     8          0.712              1.618              1.266
 Vibration     9          0.721              1.592              1.204
 Vibration    10          0.759              1.488              0.995
 Vibration    11          0.783              1.426              0.890
 Vibration    12          0.796              1.392              0.839
 Vibration    13          0.812              1.353              0.785
 Vibration    14          0.828              1.315              0.735
 Vibration    15          0.924              1.101              0.509
 Vibration    16          0.969              1.010              0.433

                           ! Non-Optimized Parameters !
 Normal termination of Gaussian 16 at Sun Feb 11 16:55:21 2024.
