 Gaussian 16, Revision C.01,
 Gaussian 16:  ES64L-G16RevC.01  3-Jul-2019

 ---------------------------------------------
 # opt freq wb97xd/Def2TZVPP geom=connectivity
 ---------------------------------------------

 Opt to a minimum of SN1 intermediate like product from IRC of EGOH att
 ack on 1Q0
 ----------------------------------------------------------------------
 Symbolic Z-matrix:
 Charge = -1 Multiplicity = 1

 SCF Done:  E(RwB97XD) =  -822.736039776     A.U. after   14 cycles
 SCF Done:  E(RwB97XD) =  -822.732525202     A.U. after   14 cycles
 SCF Done:  E(RwB97XD) =  -822.734722047     A.U. after   13 cycles
 SCF Done:  E(RwB97XD) =  -822.738392478     A.U. after   10 cycles
 SCF Done:  E(RwB97XD) =  -822.739675118     A.U. after   12 cycles
 SCF Done:  E(RwB97XD) =  -822.742402313     A.U. after   12 cycles
 SCF Done:  E(RwB97XD) =  -822.746312954     A.U. after   12 cycles
 SCF Done:  E(RwB97XD) =  -822.748730651     A.U. after   13 cycles
 SCF Done:  E(RwB97XD) =  -822.749997028     A.U. after   13 cycles
 SCF Done:  E(RwB97XD) =  -822.750959675     A.U. after   13 cycles
 SCF Done:  E(RwB97XD) =  -822.756182951     A.U. after    8 cycles
 SCF Done:  E(RwB97XD) =  -822.756183737     A.U. after   10 cycles
 SCF Done:  E(RwB97XD) =  -822.756184114     A.U. after    8 cycles
 SCF Done:  E(RwB97XD) =  -822.756184977     A.U. after    8 cycles
 SCF Done:  E(RwB97XD) =  -822.756172232     A.U. after   11 cycles
 SCF Done:  E(RwB97XD) =  -822.756186363     A.U. after   11 cycles
 SCF Done:  E(RwB97XD) =  -822.756186645     A.U. after    7 cycles
 SCF Done:  E(RwB97XD) =  -822.756187166     A.U. after    9 cycles
 SCF Done:  E(RwB97XD) =  -822.756187185     A.U. after    8 cycles
 Optimization completed.
    -- Stationary point found.
 Normal termination of Gaussian 16 at Wed Nov  1 11:33:50 2023.

 ----------------------------------------------------------------------
 #N Geom=AllCheck Guess=TCheck SCRF=Check GenChk RwB97XD/def2TZVPP Freq
 ----------------------------------------------------------------------

 ----------------------------------------------------------------------
 Opt to a minimum of SN1 intermediate like product from IRC of EGOH att
 ack on 1Q0
 ----------------------------------------------------------------------
 Charge = -1 Multiplicity = 1

                         Standard orientation:
 ---------------------------------------------------------------------
 Center     Atomic      Atomic             Coordinates (Angstroms)
 Number     Number       Type             X           Y           Z
 ---------------------------------------------------------------------
      1         14           0        1.223774   -0.370275   -0.182594
      2          8           0        2.155608   -1.520076   -0.579070
      3          8           0        0.250578    2.857121    0.235481
      4          1           0        1.039515    3.349174    0.016923
      5          8           0        0.439221    0.636875   -1.123075
      6          1           0        0.281509    2.063836   -0.381779
      7          8           0        1.395691    0.309890    1.325780
      8          1           0        1.020856    1.197264    1.323802
      9          6           0       -1.608808   -0.991603    0.985008
     10          1           0       -1.293578   -0.702399    1.986092
     11          1           0       -2.348185   -1.794282    1.061061
     12          6           0       -2.177757    0.202231    0.210375
     13          1           0       -1.645713    1.112461    0.498478
     14          1           0       -3.229726    0.325096    0.488466
     15          8           0       -0.451034   -1.535750    0.349349
     16          8           0       -2.087155   -0.008785   -1.169654
     17          1           0       -1.148341    0.260000   -1.381805
     18          1           0       -0.713054   -1.805269   -0.537706
 ---------------------------------------------------------------------

 SCF Done:  E(RwB97XD) =  -822.756187185     A.U. after    1 cycles

 The electronic state is 1-A.
 Alpha  occ. eigenvalues --  -66.09070 -19.17289 -19.10014 -19.08959 -19.07836
 Alpha  occ. eigenvalues --  -19.01547 -18.98037 -10.22472 -10.20414  -5.21136
 Alpha  occ. eigenvalues --   -3.56029  -3.55519  -3.55203  -1.04902  -0.98012
 Alpha  occ. eigenvalues --   -0.95409  -0.93307  -0.83873  -0.79438  -0.72285
 Alpha  occ. eigenvalues --   -0.60252  -0.51126  -0.47644  -0.46703  -0.45074
 Alpha  occ. eigenvalues --   -0.43844  -0.41420  -0.37651  -0.35601  -0.34334
 Alpha  occ. eigenvalues --   -0.33464  -0.30502  -0.28474  -0.27232  -0.25892
 Alpha  occ. eigenvalues --   -0.25015  -0.22925  -0.22694  -0.20313  -0.20024
 Alpha  occ. eigenvalues --   -0.16857  -0.15906
 Alpha virt. eigenvalues --    0.22037   0.23908   0.24389   0.27622   0.28301
 Alpha virt. eigenvalues --    0.30441   0.31224   0.32737   0.33164   0.35790
 Alpha virt. eigenvalues --    0.36695   0.38121   0.39668   0.40097   0.40515

 Mulliken charges:
               1
     1  Si   0.736915
     2  O   -0.737170
     3  O   -0.484383
     4  H    0.149356
     5  O   -0.709117
     6  H    0.262924
     7  O   -0.475279
     8  H    0.184686
     9  C    0.023095
    10  H    0.071393
    11  H    0.072997
    12  C    0.025327
    13  H    0.077610
    14  H    0.041024
    15  O   -0.201764
    16  O   -0.471153
    17  H    0.253419
    18  H    0.180118
 Sum of Mulliken charges =  -1.00000

 Dipole moment (field-independent basis, Debye):
    X=             -5.5916    Y=              1.0920    Z=              2.9303  Tot=              6.4067
 Quadrupole moment (field-independent basis, Debye-Ang):
   XX=            -81.8180   YY=            -73.7715   ZZ=            -71.6099
   XY=             16.2586   XZ=             -3.3132   YZ=             -1.6446

  Exact polarizability:      85.017      -1.030      79.800      -2.840       0.964      70.747
 Approx polarizability:      83.308      -1.843      82.264      -1.542       2.564      78.636

                      1                      2                      3
                      A                      A                      A
 Frequencies --     30.1833                54.0252                82.4918
 Red. masses --      6.1641                 5.6901                 3.1603
 Frc consts  --      0.0033                 0.0098                 0.0127
 IR Inten    --      1.4783                10.6194                 4.7228

                      4                      5                      6
                      A                      A                      A
 Frequencies --    118.1690               161.7527               189.4747
 Red. masses --      8.4850                 5.7246                 2.9471
 Frc consts  --      0.0698                 0.0882                 0.0623
 IR Inten    --      6.9314                10.8445                18.9611

                      7                      8                      9
                      A                      A                      A
 Frequencies --    202.6419               212.1477               236.3989
 Red. masses --      4.1128                 1.5347                 3.2033
 Frc consts  --      0.0995                 0.0407                 0.1055
 IR Inten    --     10.2541                63.8569                48.8473

                     10                     11                     12
                      A                      A                      A
 Frequencies --    257.5648               271.3498               332.3309
 Red. masses --      6.4657                 4.6878                 4.4453
 Frc consts  --      0.2527                 0.2034                 0.2893
 IR Inten    --      8.3311                 3.4026                29.9607

                     13                     14                     15
                      A                      A                      A
 Frequencies --    377.5599               429.6416               443.6529
 Red. masses --      6.9098                 7.7014                 8.0408
 Frc consts  --      0.5803                 0.8376                 0.9325
 IR Inten    --      1.2011               141.2334               122.9954

                     16                     17                     18
                      A                      A                      A
 Frequencies --    523.2919               570.9657               648.9834
 Red. masses --      1.1000                 2.2335                 1.4272
 Frc consts  --      0.1775                 0.4290                 0.3542
 IR Inten    --    111.6483                 5.0866               117.2678

                     19                     20                     21
                      A                      A                      A
 Frequencies --    658.7377               798.2993               865.9963
 Red. masses --      1.0816                11.7084                 1.5546
 Frc consts  --      0.2765                 4.3962                 0.6869
 IR Inten    --    126.1304                67.5730                 9.0853

                     22                     23                     24
                      A                      A                      A
 Frequencies --    900.3703               946.2300              1002.5392
 Red. masses --      2.8357                 1.5826                 2.7441
 Frc consts  --      1.3544                 0.8349                 1.6250
 IR Inten    --     20.2736                 6.0482               297.9241

                     25                     26                     27
                      A                      A                      A
 Frequencies --   1054.9473              1079.7810              1109.3482
 Red. masses --      1.2165                 2.3316                 1.7900
 Frc consts  --      0.7977                 1.6016                 1.2979
 IR Inten    --     36.6997                58.1405                57.6069

                     28                     29                     30
                      A                      A                      A
 Frequencies --   1140.5115              1146.9901              1233.7530
 Red. masses --      1.2988                 3.0619                 1.2549
 Frc consts  --      0.9954                 2.3734                 1.1254
 IR Inten    --    200.6598                59.9884                13.1634

                     31                     32                     33
                      A                      A                      A
 Frequencies --   1261.6532              1279.9788              1387.3548
 Red. masses --      4.7501                 1.2064                 1.2143
 Frc consts  --      4.4548                 1.1646                 1.3771
 IR Inten    --    287.1458                13.2172                 9.5763

                     34                     35                     36
                      A                      A                      A
 Frequencies --   1410.3042              1425.9567              1497.5684
 Red. masses --      1.2226                 1.2828                 1.0877
 Frc consts  --      1.4327                 1.5368                 1.4372
 IR Inten    --     28.8211                22.0748                 3.1447

                     37                     38                     39
                      A                      A                      A
 Frequencies --   1508.0358              1549.7184              1714.1329
 Red. masses --      1.0943                 1.1340                 1.0673
 Frc consts  --      1.4662                 1.6047                 1.8476
 IR Inten    --      2.7419                82.5727                39.4642

                     40                     41                     42
                      A                      A                      A
 Frequencies --   2969.8777              3022.6227              3039.1785
 Red. masses --      1.0727                 1.0625                 1.0682
 Frc consts  --      5.5742                 5.7193                 5.8134
 IR Inten    --   1257.6947               212.4921               115.3358

                     43                     44                     45
                      A                      A                      A
 Frequencies --   3081.5304              3126.7655              3135.6822
 Red. masses --      1.1014                 1.0737                 1.0964
 Frc consts  --      6.1620                 6.1846                 6.3516
 IR Inten    --     25.3179               721.2824                80.4858

                     46                     47                     48
                      A                      A                      A
 Frequencies --   3804.8486              3824.7652              3956.2660
 Red. masses --      1.0662                 1.0652                 1.0649
 Frc consts  --      9.0938                 9.1812                 9.8202
 IR Inten    --    211.5226                61.7982                18.8651

 - Thermochemistry -
 -------------------
 Temperature   298.150 Kelvin.  Pressure   1.00000 Atm.
 Atom     1 has atomic number 14 and mass  27.97693

 Molecular mass:   157.01684 amu.
 Principal axes and moments of inertia in atomic units:
                           1         2         3
     Eigenvalues --  1267.898601565.820492111.91916
           X            0.99494   0.09874  -0.01870
           Y           -0.09890   0.99507  -0.00770
           Z            0.01785   0.00951   0.99980
 This molecule is an asymmetric top.
 Rotational symmetry number  1.
 Warning -- assumption of classical behavior for rotation
           may cause significant error
 Rotational temperatures (Kelvin)      0.06831     0.05532     0.04101
 Rotational constants (GHZ):           1.42341     1.15258     0.85455
 Zero-point vibrational energy     359336.5 (Joules/Mol)
                                   85.88348 (Kcal/Mol)
 Warning -- explicit consideration of  17 degrees of freedom as
           vibrations may cause significant error
 Vibrational temperatures:     43.43    77.73   118.69   170.02   232.73
          (Kelvin)            272.61   291.56   305.23   340.13   370.58
                              390.41   478.15   543.22   618.16   638.32
                              752.90   821.49   933.74   947.78  1148.57
                             1245.98  1295.43  1361.41  1442.43  1517.83
                             1553.56  1596.10  1640.94  1650.26  1775.10
                             1815.24  1841.60  1996.09  2029.11  2051.63
                             2154.67  2169.73  2229.70  2466.25  4272.99
                             4348.88  4372.70  4433.63  4498.72  4511.55
                             5474.33  5502.98  5692.18

 Zero-point correction=                           0.136864 (Hartree/Particle)
 Thermal correction to Energy=                    0.148997
 Thermal correction to Enthalpy=                  0.149941
 Thermal correction to Gibbs Free Energy=         0.097992
 Sum of electronic and zero-point Energies=           -822.619323
 Sum of electronic and thermal Energies=              -822.607190
 Sum of electronic and thermal Enthalpies=            -822.606246
 Sum of electronic and thermal Free Energies=         -822.658195

                     E (Thermal)             CV                S
                      KCal/Mol        Cal/Mol-Kelvin    Cal/Mol-Kelvin
 Total                   93.497             41.484            109.335
 Electronic               0.000              0.000              0.000
 Translational            0.889              2.981             41.063
 Rotational               0.889              2.981             29.818
 Vibrational             91.719             35.522             38.454
 Vibration     1          0.594              1.984              5.817
 Vibration     2          0.596              1.976              4.664
 Vibration     3          0.600              1.961              3.831
 Vibration     4          0.608              1.934              3.130
 Vibration     5          0.622              1.889              2.529
 Vibration     6          0.633              1.854              2.233
 Vibration     7          0.639              1.836              2.109
 Vibration     8          0.643              1.822              2.025
 Vibration     9          0.655              1.785              1.830
 Vibration    10          0.667              1.750              1.678
 Vibration    11          0.675              1.726              1.588
 Vibration    12          0.714              1.611              1.249
 Vibration    13          0.748              1.518              1.049
 Vibration    14          0.791              1.406              0.860
 Vibration    15          0.803              1.375              0.815
 Vibration    16          0.878              1.198              0.602
 Vibration    17          0.927              1.094              0.502

                           ! Non-Optimized Parameters !
 Normal termination of Gaussian 16 at Wed Nov  1 11:45:14 2023.
