 Gaussian 16, Revision C.01,
 Gaussian 16:  ES64L-G16RevC.01  3-Jul-2019

 ---------------------------------------------
 # opt freq wb97xd/Def2TZVPP geom=connectivity
 ---------------------------------------------

 -------------------------------------
 SiOH4 attack IRC Product Optimization
 -------------------------------------
 Symbolic Z-matrix:
 Charge =  0 Multiplicity = 1

 SCF Done:  E(RwB97XD) =  -823.299318912     A.U. after   14 cycles
 SCF Done:  E(RwB97XD) =  -823.298213945     A.U. after   12 cycles
 SCF Done:  E(RwB97XD) =  -823.303492814     A.U. after   12 cycles
 SCF Done:  E(RwB97XD) =  -823.304317836     A.U. after   12 cycles
 SCF Done:  E(RwB97XD) =  -823.303391594     A.U. after   13 cycles
 SCF Done:  E(RwB97XD) =  -823.305974762     A.U. after   11 cycles
 SCF Done:  E(RwB97XD) =  -823.306567188     A.U. after   12 cycles
 SCF Done:  E(RwB97XD) =  -823.306924063     A.U. after   10 cycles
 SCF Done:  E(RwB97XD) =  -823.307360970     A.U. after   11 cycles
 SCF Done:  E(RwB97XD) =  -823.307653480     A.U. after   11 cycles
 SCF Done:  E(RwB97XD) =  -823.325154397     A.U. after   10 cycles
 SCF Done:  E(RwB97XD) =  -823.325174778     A.U. after    9 cycles
 SCF Done:  E(RwB97XD) =  -823.325191588     A.U. after    9 cycles
 SCF Done:  E(RwB97XD) =  -823.325195683     A.U. after    8 cycles
 SCF Done:  E(RwB97XD) =  -823.325196755     A.U. after    7 cycles
 SCF Done:  E(RwB97XD) =  -823.325197203     A.U. after    7 cycles
 SCF Done:  E(RwB97XD) =  -823.325197381     A.U. after    6 cycles
 SCF Done:  E(RwB97XD) =  -823.325197532     A.U. after    6 cycles
 SCF Done:  E(RwB97XD) =  -823.325197614     A.U. after    6 cycles
 Optimization completed.
    -- Stationary point found.
 Normal termination of Gaussian 16 at Sun Oct 22 20:41:11 2023.

 ----------------------------------------------------------------------
 #N Geom=AllCheck Guess=TCheck SCRF=Check GenChk RwB97XD/def2TZVPP Freq
 ----------------------------------------------------------------------

 Structure from the checkpoint file:  "SiAttackIRCProductOpt.chk"
 -------------------------------------
 SiOH4 attack IRC Product Optimization
 -------------------------------------
 Charge =  0 Multiplicity = 1

                         Standard orientation:
 ---------------------------------------------------------------------
 Center     Atomic      Atomic             Coordinates (Angstroms)
 Number     Number       Type             X           Y           Z
 ---------------------------------------------------------------------
      1          6           0       -1.618678    1.411274    0.135258
      2          1           0       -0.888577    2.077341    0.601317
      3          1           0       -2.511802    1.998540   -0.090142
      4          6           0       -1.062456    0.895452   -1.193047
      5          1           0       -1.849018    0.477874   -1.819672
      6          1           0       -0.549246    1.685069   -1.736471
      7          8           0       -1.953735    0.376270    1.023588
      8          1           0       -2.140947   -1.265383    0.302779
      9          8           0       -1.801018   -1.974929   -0.282136
     10          1           0       -2.541095   -2.347708   -0.757344
     11         14           0        1.237596   -0.033593    0.246367
     12          8           0        1.942359    1.321954   -0.326873
     13          1           0        2.692612    1.204140   -0.904947
     14          8           0        0.524164   -0.025402    1.607243
     15          1           0       -1.082392    0.155939    1.468041
     16          8           0       -0.101277   -0.181149   -1.016193
     17          1           0       -0.637789   -1.010325   -0.856936
     18          8           0        2.154219   -1.304805   -0.218076
     19          1           0        2.151030   -2.041050    0.390538
 ---------------------------------------------------------------------

 SCF Done:  E(RwB97XD) =  -823.325197614     A.U. after    1 cycles

 The electronic state is 1-A.
 Alpha  occ. eigenvalues --  -66.28800 -19.33287 -19.27950 -19.25196 -19.25094
 Alpha  occ. eigenvalues --  -19.24316 -19.16016 -10.36887 -10.34146  -5.40709
 Alpha  occ. eigenvalues --   -3.75442  -3.75177  -3.74898  -1.20766  -1.14383
 Alpha  occ. eigenvalues --   -1.12215  -1.12087  -1.09930  -0.98529  -0.86810
 Alpha  occ. eigenvalues --   -0.74529  -0.69952  -0.66013  -0.63819  -0.61495
 Alpha  occ. eigenvalues --   -0.61061  -0.59330  -0.57832  -0.53082  -0.50814
 Alpha  occ. eigenvalues --   -0.50314  -0.49053  -0.46910  -0.46323  -0.44534
 Alpha  occ. eigenvalues --   -0.43241  -0.43062  -0.41929  -0.40157  -0.37366
 Alpha  occ. eigenvalues --   -0.34880  -0.34185
 Alpha virt. eigenvalues --    0.07796   0.10261   0.12022   0.14323   0.14863
 Alpha virt. eigenvalues --    0.15566   0.16385   0.17849   0.19638   0.20330
 Alpha virt. eigenvalues --    0.21616   0.23247   0.24814   0.25417   0.27017

 Mulliken charges:
               1
     1  C    0.027852
     2  H    0.106890
     3  H    0.077872
     4  C   -0.039712
     5  H    0.105258
     6  H    0.109846
     7  O   -0.434621
     8  H    0.229620
     9  O   -0.372138
    10  H    0.186265
    11  Si   0.747526
    12  O   -0.395995
    13  H    0.180593
    14  O   -0.640057
    15  H    0.252479
    16  O   -0.169651
    17  H    0.247174
    18  O   -0.416756
    19  H    0.197556
 Sum of Mulliken charges =  -0.00000

 Dipole moment (field-independent basis, Debye):
    X=             -2.1292    Y=             -0.6443    Z=             -4.9814  Tot=              5.4556
 Quadrupole moment (field-independent basis, Debye-Ang):
   XX=            -51.5431   YY=            -54.9893   ZZ=            -64.7731
   XY=              1.4298   XZ=              4.3701   YZ=             -2.6962

  Exact polarizability:      78.079      -1.120      73.467       0.076      -1.618      66.014
 Approx polarizability:      77.163      -0.056      76.882      -1.462      -1.378      73.159

                      1                      2                      3
                      A                      A                      A
 Frequencies --     53.7710                89.8765               170.5606
 Red. masses --      6.3662                 5.9364                 4.2986
 Frc consts  --      0.0108                 0.0283                 0.0737
 IR Inten    --      3.6133                 0.6973                 1.5751

                      4                      5                      6
                      A                      A                      A
 Frequencies --    181.7043               195.2511               208.1583
 Red. masses --      4.6564                 4.3798                 3.3930
 Frc consts  --      0.0906                 0.0984                 0.0866
 IR Inten    --      8.9183                 3.0308                 7.4042

                      7                      8                      9
                      A                      A                      A
 Frequencies --    239.0474               254.9598               277.4107
 Red. masses --      3.4864                 2.7406                 1.4653
 Frc consts  --      0.1174                 0.1050                 0.0664
 IR Inten    --      5.2932                39.0206                47.1093

                     10                     11                     12
                      A                      A                      A
 Frequencies --    284.5911               306.5418               325.2311
 Red. masses --      1.3633                 2.5228                 3.5083
 Frc consts  --      0.0651                 0.1397                 0.2186
 IR Inten    --     88.6566                34.2362                97.8125

                     13                     14                     15
                      A                      A                      A
 Frequencies --    347.4688               364.8702               377.1272
 Red. masses --      1.4152                 5.1924                 3.0736
 Frc consts  --      0.1007                 0.4073                 0.2576
 IR Inten    --      1.2379                 7.0239                49.3183

                     16                     17                     18
                      A                      A                      A
 Frequencies --    436.0961               486.4783               545.4280
 Red. masses --      4.9321                 1.2734                 4.9680
 Frc consts  --      0.5526                 0.1776                 0.8708
 IR Inten    --    135.5057                74.3598               201.4833

                     19                     20                     21
                      A                      A                      A
 Frequencies --    592.0840               774.8781               802.7320
 Red. masses --      3.3218                 1.0956                 4.6871
 Frc consts  --      0.6861                 0.3876                 1.7795
 IR Inten    --     30.2221               201.1438               109.8724

                     22                     23                     24
                      A                      A                      A
 Frequencies --    847.9683               862.1214               871.5652
 Red. masses --      1.4273                 1.8391                 1.5350
 Frc consts  --      0.6047                 0.8054                 0.6870
 IR Inten    --     57.2988                26.1432               223.2385

                     25                     26                     27
                      A                      A                      A
 Frequencies --    885.7960               966.0587              1001.6527
 Red. masses --      2.4686                 4.3223                 1.0826
 Frc consts  --      1.1412                 2.3767                 0.6399
 IR Inten    --     21.6129               119.7924               152.0049

                     28                     29                     30
                      A                      A                      A
 Frequencies --   1051.2906              1103.1619              1120.4900
 Red. masses --      3.5123                 1.5639                 1.4091
 Frc consts  --      2.2871                 1.1214                 1.0423
 IR Inten    --     82.2263                37.7557                42.6963

                     31                     32                     33
                      A                      A                      A
 Frequencies --   1144.1333              1217.1839              1283.3930
 Red. masses --      3.3555                 7.4340                 1.1115
 Frc consts  --      2.5880                 6.4891                 1.0786
 IR Inten    --     47.7555               320.4022                 7.1733

                     34                     35                     36
                      A                      A                      A
 Frequencies --   1290.6695              1404.1387              1427.4650
 Red. masses --      1.1592                 1.2579                 1.2551
 Frc consts  --      1.1378                 1.4612                 1.5068
 IR Inten    --      3.3554                 3.2916                 9.4532

                     37                     38                     39
                      A                      A                      A
 Frequencies --   1498.8535              1509.2192              1533.7552
 Red. masses --      1.0918                 1.0860                 1.1105
 Frc consts  --      1.4452                 1.4575                 1.5391
 IR Inten    --     19.7839                 2.2091                66.4452

                     40                     41                     42
                      A                      A                      A
 Frequencies --   1553.6116              1655.3324              3034.1559
 Red. masses --      1.1260                 1.0726                 1.0642
 Frc consts  --      1.6013                 1.7316                 5.7725
 IR Inten    --    105.6097                27.8111               575.1488

                     43                     44                     45
                      A                      A                      A
 Frequencies --   3068.3224              3088.3580              3103.6460
 Red. masses --      1.0664                 1.0700                 1.0965
 Frc consts  --      5.9150                 6.0129                 6.2230
 IR Inten    --    207.7713               362.9108               326.1489

                     46                     47                     48
                      A                      A                      A
 Frequencies --   3114.8635              3166.9972              3498.3063
 Red. masses --      1.0728                 1.1086                 1.0623
 Frc consts  --      6.1328                 6.5515                 7.6595
 IR Inten    --    624.4893                 2.2491               614.6134

                     49                     50                     51
                      A                      A                      A
 Frequencies --   3966.7037              3967.9311              3975.6607
 Red. masses --      1.0679                 1.0661                 1.0664
 Frc consts  --      9.8999                 9.8899                 9.9308
 IR Inten    --     84.1427               118.7694                93.4604

 - Thermochemistry -
 -------------------
 Temperature   298.150 Kelvin.  Pressure   1.00000 Atm.
 Atom     1 has atomic number  6 and mass  12.00000

 Molecular mass:   158.02467 amu.
 Principal axes and moments of inertia in atomic units:
                           1         2         3
     Eigenvalues --  1027.780611727.230551980.23005
           X            0.99994  -0.00313   0.01050
           Y            0.00345   0.99954  -0.03007
           Z           -0.01040   0.03010   0.99949
 This molecule is an asymmetric top.
 Rotational symmetry number  1.
 Warning -- assumption of classical behavior for rotation
           may cause significant error
 Rotational temperatures (Kelvin)      0.08427     0.05015     0.04374
 Rotational constants (GHZ):           1.75596     1.04488     0.91138
 Zero-point vibrational energy     391938.9 (Joules/Mol)
                                   93.67565 (Kcal/Mol)
 Warning -- explicit consideration of  19 degrees of freedom as
           vibrations may cause significant error
 Vibrational temperatures:     77.36   129.31   245.40   261.43   280.92
          (Kelvin)            299.49   343.94   366.83   399.13   409.46
                              441.05   467.94   499.93   524.97   542.60
                              627.45   699.93   784.75   851.88  1114.88
                             1154.95  1220.04  1240.40  1253.99  1274.46
                             1389.94  1441.15  1512.57  1587.20  1612.14
                             1646.15  1751.26  1846.52  1856.99  2020.24
                             2053.80  2156.52  2171.43  2206.73  2235.30
                             2381.65  4365.47  4414.63  4443.46  4465.45
                             4481.59  4556.60  5033.28  5707.20  5708.97
                             5720.09

 Zero-point correction=                           0.149282 (Hartree/Particle)
 Thermal correction to Energy=                    0.161250
 Thermal correction to Enthalpy=                  0.162194
 Thermal correction to Gibbs Free Energy=         0.112381
 Sum of electronic and zero-point Energies=           -823.175916
 Sum of electronic and thermal Energies=              -823.163947
 Sum of electronic and thermal Enthalpies=            -823.163003
 Sum of electronic and thermal Free Energies=         -823.212816

                     E (Thermal)             CV                S
                      KCal/Mol        Cal/Mol-Kelvin    Cal/Mol-Kelvin
 Total                  101.186             43.517            104.841
 Electronic               0.000              0.000              0.000
 Translational            0.889              2.981             41.082
 Rotational               0.889              2.981             29.643
 Vibrational             99.409             37.555             34.116
 Vibration     1          0.596              1.976              4.674
 Vibration     2          0.602              1.956              3.663
 Vibration     3          0.626              1.879              2.429
 Vibration     4          0.630              1.865              2.311
 Vibration     5          0.636              1.846              2.177
 Vibration     6          0.641              1.828              2.060
 Vibration     7          0.657              1.781              1.810
 Vibration     8          0.665              1.754              1.696
 Vibration     9          0.678              1.715              1.550
 Vibration    10          0.683              1.702              1.506
 Vibration    11          0.697              1.661              1.381
 Vibration    12          0.709              1.625              1.284
 Vibration    13          0.725              1.580              1.178
 Vibration    14          0.738              1.545              1.101
 Vibration    15          0.748              1.519              1.051
 Vibration    16          0.797              1.392              0.839
 Vibration    17          0.842              1.280              0.693
 Vibration    18          0.901              1.150              0.554
 Vibration    19          0.950              1.049              0.463

                           ! Non-Optimized Parameters !
 Normal termination of Gaussian 16 at Sun Oct 22 20:56:29 2023.
