 Gaussian 16, Revision C.01,
 Gaussian 16:  ES64L-G16RevC.01  3-Jul-2019

 ----------------------------------------------------
 # opt=calcfc freq wb97xd/def2tzvpp geom=connectivity
 ----------------------------------------------------

 --------------------------------------------------------
 Convert TS for PbiL to QbiL collapse to PbiLmL to QbiLmL
 --------------------------------------------------------
 Symbolic Z-matrix:
 Charge = -1 Multiplicity = 1

 SCF Done:  E(RwB97XD) =  -900.202479962     A.U. after   14 cycles
 SCF Done:  E(RwB97XD) =  -900.203866748     A.U. after   12 cycles
 SCF Done:  E(RwB97XD) =  -900.204133174     A.U. after   13 cycles
 SCF Done:  E(RwB97XD) =  -900.204096763     A.U. after   14 cycles
 SCF Done:  E(RwB97XD) =  -900.203389460     A.U. after   13 cycles
 SCF Done:  E(RwB97XD) =  -900.204585953     A.U. after   11 cycles
 SCF Done:  E(RwB97XD) =  -900.204671364     A.U. after   11 cycles
 SCF Done:  E(RwB97XD) =  -900.204674603     A.U. after    8 cycles
 SCF Done:  E(RwB97XD) =  -900.204674666     A.U. after    8 cycles
 SCF Done:  E(RwB97XD) =  -900.204674691     A.U. after    6 cycles
 SCF Done:  E(RwB97XD) =  -900.204674702     A.U. after    6 cycles
 Optimization completed.
    -- Stationary point found.
 Normal termination of Gaussian 16 at Wed Mar 27 14:42:05 2024.

 ----------------------------------------------------------------------
 #N Geom=AllCheck Guess=TCheck SCRF=Check GenChk RwB97XD/def2TZVPP Freq
 ----------------------------------------------------------------------

 Structure from the checkpoint file:  "PbiLmL_to_QbiLmL_collapseIRC_Forward_ProductOpt.chk"
 --------------------------------------------------------
 Convert TS for PbiL to QbiL collapse to PbiLmL to QbiLmL
 --------------------------------------------------------
 Charge = -1 Multiplicity = 1

                         Standard orientation:
 ---------------------------------------------------------------------
 Center     Atomic      Atomic             Coordinates (Angstroms)
 Number     Number       Type             X           Y           Z
 ---------------------------------------------------------------------
      1         14           0       -0.567145    0.649637    0.004203
      2          8           0       -0.673927   -0.976827    0.361546
      3          8           0       -3.920735   -0.574255   -0.253967
      4          1           0       -3.311007   -1.273843   -0.021326
      5          8           0        0.350129    1.365339    1.230725
      6          8           0       -1.926912    1.267438   -0.362101
      7          1           0       -3.301863    0.190025   -0.328935
      8          8           0        0.709367    0.737219   -1.136352
      9          6           0        1.663434    1.677712   -0.706860
     10          1           0        2.644424    1.429935   -1.121811
     11          1           0        1.382296    2.680462   -1.051974
     12          6           0        1.666843    1.621449    0.825635
     13          1           0        2.334909    0.816909    1.162784
     14          1           0        2.019386    2.562886    1.259438
     15          6           0        0.325777   -1.756873    0.951458
     16          1           0        0.984789   -1.149233    1.584225
     17          1           0       -0.158509   -2.497336    1.600173
     18          6           0        1.162898   -2.502785   -0.074596
     19          1           0        1.778411   -3.243659    0.445796
     20          1           0        0.479845   -3.044548   -0.743490
     21          8           0        2.040197   -1.682922   -0.806392
     22          1           0        1.548676   -0.891482   -1.085210
 ---------------------------------------------------------------------

 SCF Done:  E(RwB97XD) =  -900.204674702     A.U. after    1 cycles

 The electronic state is 1-A.
 Alpha  occ. eigenvalues --  -66.12020 -19.11433 -19.10839 -19.10142 -19.09996
 Alpha  occ. eigenvalues --  -19.05055 -18.99678 -10.21196 -10.21061 -10.20869
 Alpha  occ. eigenvalues --  -10.20779  -5.23907  -3.58563  -3.58467  -3.58099
 Alpha  occ. eigenvalues --   -1.01446  -0.99549  -0.96927  -0.94983  -0.91541
 Alpha  occ. eigenvalues --   -0.81908  -0.71207  -0.69963  -0.59249  -0.58257
 Alpha  occ. eigenvalues --   -0.49171  -0.47638  -0.46674  -0.45141  -0.43805
 Alpha  occ. eigenvalues --   -0.42566  -0.41546  -0.38749  -0.38330  -0.37140
 Alpha  occ. eigenvalues --   -0.37011  -0.31891  -0.30507  -0.28138  -0.28004
 Alpha  occ. eigenvalues --   -0.27811  -0.25703  -0.24613  -0.23884  -0.23285
 Alpha  occ. eigenvalues --   -0.22091  -0.21189  -0.18122  -0.17931
 Alpha virt. eigenvalues --    0.22846   0.23686   0.25116   0.25843   0.26833
 Alpha virt. eigenvalues --    0.28026   0.28415   0.30078   0.30767   0.31832
 Alpha virt. eigenvalues --    0.32764   0.33556   0.34136   0.34899   0.37304

 Mulliken charges:
               1
     1  Si   0.732424
     2  O   -0.410892
     3  O   -0.525441
     4  H    0.173968
     5  O   -0.439105
     6  O   -0.725899
     7  H    0.277433
     8  O   -0.441046
     9  C    0.039244
    10  H    0.047274
    11  H    0.058078
    12  C    0.053163
    13  H    0.033958
    14  H    0.042684
    15  C    0.028089
    16  H    0.055216
    17  H    0.049102
    18  C    0.082974
    19  H    0.029507
    20  H    0.044240
    21  O   -0.434887
    22  H    0.229916
 Sum of Mulliken charges =  -1.00000

 Dipole moment (field-independent basis, Debye):
    X=              8.1311    Y=             -1.6941    Z=              1.8980  Tot=              8.5198
 Quadrupole moment (field-independent basis, Debye-Ang):
   XX=           -115.4807   YY=            -79.9777   ZZ=            -80.5438
   XY=              9.0578   XZ=             -0.7798   YZ=             -3.6203

  Exact polarizability:     102.692       2.766     102.872       1.203      -3.304      82.326
 Approx polarizability:     104.162       0.821     101.894       1.764      -2.820      91.701

                      1                      2                      3
                      A                      A                      A
 Frequencies --     20.0962                41.4992                56.0902
 Red. masses --      8.3966                 6.5212                 5.5163
 Frc consts  --      0.0020                 0.0066                 0.0102
 IR Inten    --      0.1448                 0.8224                 4.1613

                      4                      5                      6
                      A                      A                      A
 Frequencies --     98.6364               117.5355               167.4567
 Red. masses --      3.0931                 3.5523                 5.6286
 Frc consts  --      0.0177                 0.0289                 0.0930
 IR Inten    --      3.5186                 1.1478                 3.3732

                      7                      8                      9
                      A                      A                      A
 Frequencies --    189.7296               203.3026               220.8237
 Red. masses --      3.2152                 3.1652                 5.2761
 Frc consts  --      0.0682                 0.0771                 0.1516
 IR Inten    --      6.1668                 0.7584                12.8422

                     10                     11                     12
                      A                      A                      A
 Frequencies --    238.0224               271.8637               333.4728
 Red. masses --      1.1044                 3.2235                 5.1042
 Frc consts  --      0.0369                 0.1404                 0.3344
 IR Inten    --     42.6609                 7.9018                14.4680

                     13                     14                     15
                      A                      A                      A
 Frequencies --    355.6843               373.7874               444.3267
 Red. masses --      6.5024                 5.3148                 6.6989
 Frc consts  --      0.4847                 0.4375                 0.7792
 IR Inten    --     25.3995                11.4200                36.0889

                     16                     17                     18
                      A                      A                      A
 Frequencies --    461.6061               491.3952               537.1563
 Red. masses --      1.2858                 2.7969                 3.0227
 Frc consts  --      0.1614                 0.3979                 0.5139
 IR Inten    --     59.9658                11.9542                29.3574

                     19                     20                     21
                      A                      A                      A
 Frequencies --    607.9946               691.8404               713.6643
 Red. masses --      2.9947                 7.1565                 3.9419
 Frc consts  --      0.6522                 2.0182                 1.1829
 IR Inten    --      7.0125                21.1178               152.5363

                     22                     23                     24
                      A                      A                      A
 Frequencies --    729.2884               771.3788               837.4069
 Red. masses --      1.1965                 6.2649                 1.0582
 Frc consts  --      0.3749                 2.1963                 0.4372
 IR Inten    --     50.9536               193.1583               112.4386

                     25                     26                     27
                      A                      A                      A
 Frequencies --    896.2257               905.3266               931.7320
 Red. masses --      2.6807                 1.7457                 2.5377
 Frc consts  --      1.2686                 0.8430                 1.2980
 IR Inten    --     68.9835                27.0819                12.5894

                     28                     29                     30
                      A                      A                      A
 Frequencies --    939.0403              1118.5448              1129.8139
 Red. masses --      1.9492                 2.9456                 4.4247
 Frc consts  --      1.0127                 2.1713                 3.3278
 IR Inten    --     40.3625                15.3062               106.6992

                     31                     32                     33
                      A                      A                      A
 Frequencies --   1139.4221              1147.9247              1165.4060
 Red. masses --      3.7405                 3.1695                 2.1958
 Frc consts  --      2.8612                 2.4608                 1.7571
 IR Inten    --     40.8738                84.4357                79.3157

                     34                     35                     36
                      A                      A                      A
 Frequencies --   1183.5511              1199.3410              1266.2695
 Red. masses --      4.6347                13.0008                 1.1369
 Frc consts  --      3.8251                11.0181                 1.0741
 IR Inten    --     53.8449               553.1024                 6.2290

                     37                     38                     39
                      A                      A                      A
 Frequencies --   1269.5590              1271.1482              1311.1748
 Red. masses --      1.1145                 1.1489                 1.1653
 Frc consts  --      1.0584                 1.0938                 1.1804
 IR Inten    --      2.5590                13.9381                27.6196

                     40                     41                     42
                      A                      A                      A
 Frequencies --   1382.9977              1398.5576              1401.4683
 Red. masses --      1.2820                 1.2657                 1.2920
 Frc consts  --      1.4447                 1.4586                 1.4951
 IR Inten    --      3.4845                 7.3309                 1.7350

                     43                     44                     45
                      A                      A                      A
 Frequencies --   1411.4013              1492.5711              1500.2707
 Red. masses --      1.3320                 1.1336                 1.1167
 Frc consts  --      1.5634                 1.4879                 1.4809
 IR Inten    --     15.3414                36.6521                 0.1892

                     46                     47                     48
                      A                      A                      A
 Frequencies --   1506.4705              1517.8112              1525.3441
 Red. masses --      1.0995                 1.0914                 1.0907
 Frc consts  --      1.4702                 1.4814                 1.4951
 IR Inten    --      7.4448                 1.7446                 2.9108

                     49                     50                     51
                      A                      A                      A
 Frequencies --   1728.3117              2983.5372              2987.2981
 Red. masses --      1.0770                 1.0671                 1.0655
 Frc consts  --      1.8954                 5.5964                 5.6023
 IR Inten    --    206.1477                61.1105                73.7440

                     52                     53                     54
                      A                      A                      A
 Frequencies --   2997.7656              3000.9615              3038.7110
 Red. masses --      1.0588                 1.0646                 1.1030
 Frc consts  --      5.6061                 5.6490                 6.0009
 IR Inten    --     88.2010                59.5470               113.8221

                     55                     56                     57
                      A                      A                      A
 Frequencies --   3043.8226              3053.9193              3065.5455
 Red. masses --      1.0928                 1.0965                 1.1023
 Frc consts  --      5.9653                 6.0254                 6.1035
 IR Inten    --     92.8880                94.0104                68.0170

                     58                     59                     60
                      A                      A                      A
 Frequencies --   3387.4605              3609.2069              3935.3427
 Red. masses --      1.0647                 1.0682                 1.0643
 Frc consts  --      7.1980                 8.1982                 9.7114
 IR Inten    --    921.2294               516.6446                14.4025

 - Thermochemistry -
 -------------------
 Temperature   298.150 Kelvin.  Pressure   1.00000 Atm.
 Atom     1 has atomic number 14 and mass  27.97693

 Molecular mass:   183.03249 amu.
 Principal axes and moments of inertia in atomic units:
                           1         2         3
     Eigenvalues --  1655.355812242.204033197.46387
           X            0.99861   0.05245   0.00454
           Y           -0.05237   0.99850  -0.01595
           Z           -0.00537   0.01569   0.99986
 This molecule is an asymmetric top.
 Rotational symmetry number  1.
 Warning -- assumption of classical behavior for rotation
           may cause significant error
 Rotational temperatures (Kelvin)      0.05232     0.03863     0.02709
 Rotational constants (GHZ):           1.09024     0.80490     0.56443
 Zero-point vibrational energy     453488.2 (Joules/Mol)
                                  108.38629 (Kcal/Mol)
 Warning -- explicit consideration of  19 degrees of freedom as
           vibrations may cause significant error
 Vibrational temperatures:     28.91    59.71    80.70   141.92   169.11
          (Kelvin)            240.93   272.98   292.51   317.72   342.46
                              391.15   479.79   511.75   537.80   639.29
                              664.15   707.01   772.85   874.77   995.40
                             1026.80  1049.28  1109.84  1204.84  1289.47
                             1302.56  1340.55  1351.07  1609.34  1625.55
                             1639.37  1651.61  1676.76  1702.87  1725.58
                             1821.88  1826.61  1828.90  1886.49  1989.83
                             2012.21  2016.40  2030.69  2147.48  2158.55
                             2167.47  2183.79  2194.63  2486.66  4292.64
                             4298.06  4313.12  4317.71  4372.03  4379.38
                             4393.91  4410.64  4873.80  5192.84  5662.08

 Zero-point correction=                           0.172725 (Hartree/Particle)
 Thermal correction to Energy=                    0.185910
 Thermal correction to Enthalpy=                  0.186855
 Thermal correction to Gibbs Free Energy=         0.131420
 Sum of electronic and zero-point Energies=           -900.031950
 Sum of electronic and thermal Energies=              -900.018764
 Sum of electronic and thermal Enthalpies=            -900.017820
 Sum of electronic and thermal Free Energies=         -900.073254

                     E (Thermal)             CV                S
                      KCal/Mol        Cal/Mol-Kelvin    Cal/Mol-Kelvin
 Total                  116.661             46.270            116.671
 Electronic               0.000              0.000              0.000
 Translational            0.889              2.981             41.520
 Rotational               0.889              2.981             30.852
 Vibrational            114.883             40.309             44.300
 Vibration     1          0.593              1.986              6.625
 Vibration     2          0.594              1.981              5.186
 Vibration     3          0.596              1.975              4.590
 Vibration     4          0.604              1.950              3.481
 Vibration     5          0.608              1.935              3.140
 Vibration     6          0.624              1.883              2.464
 Vibration     7          0.633              1.854              2.230
 Vibration     8          0.639              1.835              2.103
 Vibration     9          0.648              1.809              1.952
 Vibration    10          0.656              1.782              1.818
 Vibration    11          0.675              1.725              1.584
 Vibration    12          0.715              1.609              1.243
 Vibration    13          0.731              1.564              1.141
 Vibration    14          0.745              1.526              1.064
 Vibration    15          0.804              1.373              0.813
 Vibration    16          0.819              1.335              0.761
 Vibration    17          0.847              1.269              0.680
 Vibration    18          0.892              1.168              0.571
 Vibration    19          0.967              1.015              0.436

 Optimization completed.
    -- Stationary point found.
 Normal termination of Gaussian 16 at Wed Mar 27 16:07:52 2024.
