 Gaussian 16, Revision C.01,
 Gaussian 16:  ES64L-G16RevC.01  3-Jul-2019

 ---------------------------------------------
 # opt freq wb97xd/def2tzvpp geom=connectivity
 ---------------------------------------------

 ----------------------------
 IRC for EGOdep attack on QL2
 ----------------------------
 Symbolic Z-matrix:
 Charge = -1 Multiplicity = 1

 SCF Done:  E(RwB97XD) =  -900.186044489     A.U. after   14 cycles
 SCF Done:  E(RwB97XD) =  -900.189100620     A.U. after   13 cycles
 SCF Done:  E(RwB97XD) =  -900.194418543     A.U. after   15 cycles
 SCF Done:  E(RwB97XD) =  -900.200376786     A.U. after   13 cycles
 SCF Done:  E(RwB97XD) =  -900.203279553     A.U. after   12 cycles
 SCF Done:  E(RwB97XD) =  -900.203364995     A.U. after    8 cycles
 SCF Done:  E(RwB97XD) =  -900.194515933     A.U. after   13 cycles
 SCF Done:  E(RwB97XD) =  -900.205179597     A.U. after   13 cycles
 SCF Done:  E(RwB97XD) =  -900.205755808     A.U. after   12 cycles
 SCF Done:  E(RwB97XD) =  -900.206318738     A.U. after   13 cycles
 SCF Done:  E(RwB97XD) =  -900.207987925     A.U. after   10 cycles
 SCF Done:  E(RwB97XD) =  -900.207988312     A.U. after    9 cycles
 SCF Done:  E(RwB97XD) =  -900.207988532     A.U. after    8 cycles
 SCF Done:  E(RwB97XD) =  -900.207988608     A.U. after    6 cycles
 SCF Done:  E(RwB97XD) =  -900.207988825     A.U. after    8 cycles
 SCF Done:  E(RwB97XD) =  -900.207988961     A.U. after    8 cycles
 SCF Done:  E(RwB97XD) =  -900.207989014     A.U. after    8 cycles
 SCF Done:  E(RwB97XD) =  -900.207988996     A.U. after    7 cycles
 SCF Done:  E(RwB97XD) =  -900.207989018     A.U. after    8 cycles
 Optimization completed.
    -- Stationary point found.
 Normal termination of Gaussian 16 at Wed Mar 20 11:52:00 2024.

 ----------------------------------------------------------------------
 #N Geom=AllCheck Guess=TCheck SCRF=Check GenChk RwB97XD/def2TZVPP Freq
 ----------------------------------------------------------------------

 Structure from the checkpoint file:  "IRC_EGdepattackQbiL_forward_ProductOpt.chk"
 ----------------------------
 IRC for EGOdep attack on QL2
 ----------------------------
 Charge = -1 Multiplicity = 1

                         Standard orientation:
 ---------------------------------------------------------------------
 Center     Atomic      Atomic             Coordinates (Angstroms)
 Number     Number       Type             X           Y           Z
 ---------------------------------------------------------------------
      1         14           0       -0.452517   -0.679377    0.093179
      2          8           0       -2.028243   -0.421577   -0.574837
      3          8           0        0.147085   -1.193924    1.585998
      4          1           0        0.172229   -0.425199    2.152240
      5          8           0       -0.503132   -2.295240   -0.446543
      6          8           0       -0.641826    0.977734    0.841785
      7          6           0        1.484212    1.000572   -0.983027
      8          1           0        0.831361    1.874106   -0.873547
      9          1           0        2.000995    1.070125   -1.948981
     10          6           0        2.521211    1.025594    0.131399
     11          1           0        2.004673    1.134513    1.091625
     12          1           0        3.192436    1.879480    0.001214
     13          8           0        0.774502   -0.196105   -0.975587
     14          1           0       -1.071535   -2.350582   -1.209679
     15          8           0        3.316513   -0.141549    0.119685
     16          1           0        2.688663   -0.865753    0.026217
     17          6           0       -1.870300    1.569526    0.639829
     18          1           0       -1.778316    2.656263    0.492132
     19          1           0       -2.538558    1.414131    1.505976
     20          6           0       -2.468966    0.896092   -0.595789
     21          1           0       -3.565243    0.932557   -0.593292
     22          1           0       -2.117592    1.406225   -1.506882
 ---------------------------------------------------------------------

 SCF Done:  E(RwB97XD) =  -900.207989018     A.U. after    1 cycles

 The electronic state is 1-A.
 Alpha  occ. eigenvalues --  -66.13004 -19.10394 -19.07027 -19.06957 -19.05310
 Alpha  occ. eigenvalues --  -19.05181 -19.03385 -10.18488 -10.18111 -10.18105
 Alpha  occ. eigenvalues --  -10.17868  -5.24044  -3.58715  -3.58543  -3.58467
 Alpha  occ. eigenvalues --   -0.98870  -0.97505  -0.93875  -0.91642  -0.90772
 Alpha  occ. eigenvalues --   -0.87989  -0.68489  -0.66784  -0.56969  -0.54703
 Alpha  occ. eigenvalues --   -0.47574  -0.45684  -0.43754  -0.42474  -0.41885
 Alpha  occ. eigenvalues --   -0.40878  -0.40523  -0.37487  -0.35618  -0.34943
 Alpha  occ. eigenvalues --   -0.34183  -0.33806  -0.29156  -0.27214  -0.25453
 Alpha  occ. eigenvalues --   -0.24869  -0.24413  -0.23229  -0.22999  -0.21718
 Alpha  occ. eigenvalues --   -0.20456  -0.19351  -0.19306  -0.17411
 Alpha virt. eigenvalues --    0.23704   0.25724   0.26182   0.27180   0.28379
 Alpha virt. eigenvalues --    0.29437   0.29718   0.30762   0.32009   0.33010
 Alpha virt. eigenvalues --    0.34354   0.34802   0.36188   0.37036   0.37312

 Mulliken charges:
               1
     1  Si   0.824253
     2  O   -0.451516
     3  O   -0.442416
     4  H    0.152318
     5  O   -0.509915
     6  O   -0.569632
     7  C    0.056613
     8  H    0.022901
     9  H    0.043070
    10  C    0.054990
    11  H    0.056423
    12  H    0.034585
    13  O   -0.405519
    14  H    0.135880
    15  O   -0.410951
    16  H    0.215654
    17  C    0.071827
    18  H    0.006342
    19  H    0.013033
    20  C    0.057852
    21  H    0.023064
    22  H    0.021144
 Sum of Mulliken charges =  -1.00000

 Dipole moment (field-independent basis, Debye):
    X=             -1.4254    Y=              4.5718    Z=             -0.9585  Tot=              4.8838
 Quadrupole moment (field-independent basis, Debye-Ang):
   XX=            -94.0314   YY=            -86.8988   ZZ=            -78.3586
   XY=              0.4528   XZ=             -0.1570   YZ=              1.8397

  Exact polarizability:     103.742      -2.662      96.256       0.514      -0.439      86.768
 Approx polarizability:      99.919      -1.788     103.075       1.162       0.066      95.241

                      1                      2                      3
                      A                      A                      A
 Frequencies --     27.8269                40.7491                43.2748
 Red. masses --      5.3905                 5.0199                 4.6205
 Frc consts  --      0.0025                 0.0049                 0.0051
 IR Inten    --      0.2970                 2.0588                 0.1214

                      4                      5                      6
                      A                      A                      A
 Frequencies --    113.7933               140.9799               182.2853
 Red. masses --      3.5041                 3.2635                 2.6938
 Frc consts  --      0.0267                 0.0382                 0.0527
 IR Inten    --      0.7819                 4.7544                 4.3288

                      7                      8                      9
                      A                      A                      A
 Frequencies --    222.1508               242.2261               313.1530
 Red. masses --      3.1402                 2.1019                 2.6076
 Frc consts  --      0.0913                 0.0727                 0.1507
 IR Inten    --      5.6731                11.8070                13.0340

                     10                     11                     12
                      A                      A                      A
 Frequencies --    319.4832               350.9283               398.6105
 Red. masses --      2.5205                 3.5679                 5.3448
 Frc consts  --      0.1516                 0.2589                 0.5004
 IR Inten    --      8.4098                26.9926                46.2129

                     13                     14                     15
                      A                      A                      A
 Frequencies --    401.7854               424.1694               449.0341
 Red. masses --      3.3776                 4.7075                 4.0342
 Frc consts  --      0.3213                 0.4990                 0.4793
 IR Inten    --     12.5784                13.5074                11.6388

                     16                     17                     18
                      A                      A                      A
 Frequencies --    465.2679               535.9385               568.5776
 Red. masses --      1.3292                 6.4900                 2.1203
 Frc consts  --      0.1695                 1.0983                 0.4039
 IR Inten    --     50.0055                11.6912                30.4403

                     19                     20                     21
                      A                      A                      A
 Frequencies --    580.9853               634.0069               658.2530
 Red. masses --      1.3890                 7.7000                 2.5377
 Frc consts  --      0.2762                 1.8236                 0.6478
 IR Inten    --     63.4473                 8.5148                29.8374

                     22                     23                     24
                      A                      A                      A
 Frequencies --    717.6697               775.6385               825.9568
 Red. masses --      5.6228                10.8757                 6.9486
 Frc consts  --      1.7063                 3.8550                 2.7930
 IR Inten    --    331.3109               287.1307               228.1569

                     25                     26                     27
                      A                      A                      A
 Frequencies --    902.7324               918.0832               924.9505
 Red. masses --      2.6029                 1.6702                 1.7351
 Frc consts  --      1.2498                 0.8294                 0.8746
 IR Inten    --     16.7610                26.9991                54.4343

                     28                     29                     30
                      A                      A                      A
 Frequencies --    941.4678               984.6080              1037.7241
 Red. masses --      2.4293                 1.2755                 1.2306
 Frc consts  --      1.2686                 0.7285                 0.7808
 IR Inten    --     18.4427                67.3030               357.2523

                     31                     32                     33
                      A                      A                      A
 Frequencies --   1100.8077              1139.7472              1152.6885
 Red. masses --      2.7778                 2.3081                 2.3806
 Frc consts  --      1.9833                 1.7665                 1.8636
 IR Inten    --    152.2072                25.2834                76.4339

                     34                     35                     36
                      A                      A                      A
 Frequencies --   1168.8668              1188.3778              1196.4062
 Red. masses --      4.1133                 3.3405                 3.2955
 Frc consts  --      3.3111                 2.7795                 2.7793
 IR Inten    --     13.4542               143.4632               133.7921

                     37                     38                     39
                      A                      A                      A
 Frequencies --   1248.0133              1258.3467              1267.7889
 Red. masses --      1.3636                 1.1755                 1.1905
 Frc consts  --      1.2513                 1.0967                 1.1274
 IR Inten    --     31.9975                10.8757                14.1516

                     40                     41                     42
                      A                      A                      A
 Frequencies --   1306.1645              1380.6574              1384.8229
 Red. masses --      1.1926                 1.2982                 1.2580
 Frc consts  --      1.1988                 1.4581                 1.4215
 IR Inten    --     22.3671                13.0998                 3.0347

                     43                     44                     45
                      A                      A                      A
 Frequencies --   1396.4271              1411.2160              1448.6299
 Red. masses --      1.3209                 1.2445                 1.2815
 Frc consts  --      1.5176                 1.4602                 1.5844
 IR Inten    --      9.9305                21.5284                69.2692

                     46                     47                     48
                      A                      A                      A
 Frequencies --   1498.1274              1513.0322              1513.6980
 Red. masses --      1.0840                 1.0941                 1.0918
 Frc consts  --      1.4335                 1.4757                 1.4740
 IR Inten    --      2.4045                 2.8000                 0.3516

                     49                     50                     51
                      A                      A                      A
 Frequencies --   1521.4324              2903.1036              2940.6909
 Red. masses --      1.0949                 1.0733                 1.0693
 Frc consts  --      1.4932                 5.3297                 5.4483
 IR Inten    --      3.3397               154.3791                59.2551

                     52                     53                     54
                      A                      A                      A
 Frequencies --   2969.2395              2991.6172              3013.7146
 Red. masses --      1.0836                 1.0615                 1.0929
 Frc consts  --      5.6289                 5.5975                 5.8482
 IR Inten    --    198.9256               109.6368               152.4802

                     55                     56                     57
                      A                      A                      A
 Frequencies --   3019.7689              3041.7576              3071.1296
 Red. masses --      1.0638                 1.0928                 1.1058
 Frc consts  --      5.7156                 5.9573                 6.1450
 IR Inten    --     26.4905                87.2228                93.7256

                     58                     59                     60
                      A                      A                      A
 Frequencies --   3819.8144              3951.1044              3980.5789
 Red. masses --      1.0650                 1.0646                 1.0652
 Frc consts  --      9.1554                 9.7922                 9.9445
 IR Inten    --     64.8162                19.8307                19.0001

 - Thermochemistry -
 -------------------
 Temperature   298.150 Kelvin.  Pressure   1.00000 Atm.
 Atom     1 has atomic number 14 and mass  27.97693

 Molecular mass:   183.03249 amu.
 Principal axes and moments of inertia in atomic units:
                           1         2         3
     Eigenvalues --  1229.618312336.402222753.07403
           X            0.99997  -0.00808  -0.00020
           Y            0.00808   0.99997   0.00126
           Z            0.00019  -0.00127   1.00000
 This molecule is an asymmetric top.
 Rotational symmetry number  1.
 Warning -- assumption of classical behavior for rotation
           may cause significant error
 Rotational temperatures (Kelvin)      0.07044     0.03707     0.03146
 Rotational constants (GHZ):           1.46772     0.77244     0.65554
 Zero-point vibrational energy     454222.6 (Joules/Mol)
                                  108.56180 (Kcal/Mol)
 Warning -- explicit consideration of  19 degrees of freedom as
           vibrations may cause significant error
 Vibrational temperatures:     40.04    58.63    62.26   163.72   202.84
          (Kelvin)            262.27   319.63   348.51   450.56   459.67
                              504.91   573.51   578.08   610.29   646.06
                              669.42   771.10   818.06   835.91   912.19
                              947.08  1032.57  1115.97  1188.37  1298.83
                             1320.92  1330.80  1354.56  1416.63  1493.05
                             1583.82  1639.84  1658.46  1681.74  1709.81
                             1721.36  1795.61  1810.48  1824.07  1879.28
                             1986.46  1992.45  2009.15  2030.43  2084.26
                             2155.47  2176.92  2177.87  2189.00  4176.92
                             4231.00  4272.07  4304.27  4336.06  4344.77
                             4376.41  4418.67  5495.86  5684.76  5727.17

 Zero-point correction=                           0.173004 (Hartree/Particle)
 Thermal correction to Energy=                    0.185564
 Thermal correction to Enthalpy=                  0.186508
 Thermal correction to Gibbs Free Energy=         0.132942
 Sum of electronic and zero-point Energies=           -900.034985
 Sum of electronic and thermal Energies=              -900.022425
 Sum of electronic and thermal Enthalpies=            -900.021481
 Sum of electronic and thermal Free Energies=         -900.075047

                     E (Thermal)             CV                S
                      KCal/Mol        Cal/Mol-Kelvin    Cal/Mol-Kelvin
 Total                  116.443             45.915            112.739
 Electronic               0.000              0.000              0.000
 Translational            0.889              2.981             41.520
 Rotational               0.889              2.981             30.448
 Vibrational            114.666             39.953             40.771
 Vibration     1          0.593              1.984              5.979
 Vibration     2          0.594              1.981              5.222
 Vibration     3          0.595              1.980              5.103
 Vibration     4          0.607              1.938              3.203
 Vibration     5          0.615              1.912              2.791
 Vibration     6          0.630              1.864              2.305
 Vibration     7          0.648              1.807              1.941
 Vibration     8          0.658              1.776              1.786
 Vibration     9          0.701              1.649              1.346
 Vibration    10          0.705              1.636              1.313
 Vibration    11          0.728              1.573              1.162
 Vibration    12          0.765              1.473              0.968
 Vibration    13          0.767              1.466              0.956
 Vibration    14          0.786              1.418              0.878
 Vibration    15          0.808              1.363              0.799
 Vibration    16          0.823              1.327              0.751
 Vibration    17          0.891              1.171              0.574
 Vibration    18          0.925              1.099              0.507
 Vibration    19          0.938              1.072              0.484

 Optimization completed.
    -- Stationary point found.
 Normal termination of Gaussian 16 at Wed Mar 20 13:14:48 2024.
