 Gaussian 16, Revision C.01,
 Gaussian 16:  ES64L-G16RevC.01  3-Jul-2019

 ----------------------------------------------------
 # opt=calcfc freq wb97xd/def2tzvpp geom=connectivity
 ----------------------------------------------------

 -------------------------------------------------------------------
 TS Opt product from SN1 like product derived from imag frequency TS
 -------------------------------------------------------------------
 Symbolic Z-matrix:
 Charge =  0 Multiplicity = 1

 SCF Done:  E(RwB97XD) =  -823.310423257     A.U. after   13 cycles
 SCF Done:  E(RwB97XD) =  -823.312535030     A.U. after   12 cycles
 SCF Done:  E(RwB97XD) =  -823.312960300     A.U. after   12 cycles
 SCF Done:  E(RwB97XD) =  -823.313860835     A.U. after   11 cycles
 SCF Done:  E(RwB97XD) =  -823.314173413     A.U. after   11 cycles
 SCF Done:  E(RwB97XD) =  -823.314221945     A.U. after   12 cycles
 SCF Done:  E(RwB97XD) =  -823.315172777     A.U. after   11 cycles
 SCF Done:  E(RwB97XD) =  -823.316301526     A.U. after   12 cycles
 SCF Done:  E(RwB97XD) =  -823.316450752     A.U. after   12 cycles
 SCF Done:  E(RwB97XD) =  -823.317845107     A.U. after   12 cycles
 SCF Done:  E(RwB97XD) =  -823.321264231     A.U. after    9 cycles
 SCF Done:  E(RwB97XD) =  -823.321265821     A.U. after    8 cycles
 SCF Done:  E(RwB97XD) =  -823.321267599     A.U. after    8 cycles
 SCF Done:  E(RwB97XD) =  -823.321269217     A.U. after    8 cycles
 SCF Done:  E(RwB97XD) =  -823.321270188     A.U. after    8 cycles
 SCF Done:  E(RwB97XD) =  -823.321270806     A.U. after    8 cycles
 SCF Done:  E(RwB97XD) =  -823.321271356     A.U. after    8 cycles
 SCF Done:  E(RwB97XD) =  -823.321271940     A.U. after    8 cycles
 SCF Done:  E(RwB97XD) =  -823.321272149     A.U. after    8 cycles
 Optimization completed.
    -- Stationary point found.
 Normal termination of Gaussian 16 at Tue Jan 30 20:26:17 2024.

 ----------------------------------------------------------------------
 #N Geom=AllCheck Guess=TCheck SCRF=Check GenChk RwB97XD/def2TZVPP Freq
 ----------------------------------------------------------------------

 Structure from the checkpoint file:  "ProductOpt_IRC_fromfrozenboth21.chk"
 -------------------------------------------------------------------
 TS Opt product from SN1 like product derived from imag frequency TS
 -------------------------------------------------------------------
 Charge =  0 Multiplicity = 1

                         Standard orientation:
 ---------------------------------------------------------------------
 Center     Atomic      Atomic             Coordinates (Angstroms)
 Number     Number       Type             X           Y           Z
 ---------------------------------------------------------------------
      1         14           0        1.053289   -0.258984   -0.175642
      2          8           0        2.179983   -1.376820   -0.504783
      3          1           0        2.763262   -1.638835    0.204044
      4          8           0        0.158240    2.770364    0.188448
      5          1           0        0.506244    3.606160   -0.115395
      6          8           0        0.390363    0.532148   -1.325086
      7          1           0        0.204801    2.150247   -0.570555
      8          8           0        1.369125    0.473693    1.239071
      9          1           0        1.089554    1.402926    1.219577
     10          6           0       -1.443718   -0.865511    1.134901
     11          1           0       -1.019184   -0.398783    2.018250
     12          1           0       -2.050001   -1.723529    1.418399
     13          6           0       -2.209584    0.114285    0.237587
     14          1           0       -1.780924    1.114406    0.320356
     15          1           0       -3.246518    0.157635    0.572812
     16          8           0       -0.321708   -1.416869    0.380528
     17          1           0       -0.733041   -1.713280   -0.451276
     18          8           0       -2.175352   -0.341803   -1.092141
     19          1           0       -1.365634    0.050482   -1.480455
 ---------------------------------------------------------------------

 SCF Done:  E(RwB97XD) =  -823.321272149     A.U. after    1 cycles

 The electronic state is 1-A.
 Alpha  occ. eigenvalues --  -66.30050 -19.35553 -19.26151 -19.25296 -19.25121
 Alpha  occ. eigenvalues --  -19.24122 -19.17959 -10.37453 -10.34538  -5.41992
 Alpha  occ. eigenvalues --   -3.76750  -3.76425  -3.76190  -1.22812  -1.13219
 Alpha  occ. eigenvalues --   -1.12826  -1.11002  -1.09803  -1.00350  -0.87510
 Alpha  occ. eigenvalues --   -0.75396  -0.69773  -0.65154  -0.63115  -0.62123
 Alpha  occ. eigenvalues --   -0.60874  -0.60645  -0.58142  -0.52660  -0.51519
 Alpha  occ. eigenvalues --   -0.50379  -0.48011  -0.47719  -0.46909  -0.44574
 Alpha  occ. eigenvalues --   -0.43491  -0.42401  -0.41713  -0.40098  -0.38447
 Alpha  occ. eigenvalues --   -0.36642  -0.36133
 Alpha virt. eigenvalues --    0.07348   0.10974   0.11906   0.12763   0.15407
 Alpha virt. eigenvalues --    0.16126   0.16387   0.16921   0.19115   0.20360
 Alpha virt. eigenvalues --    0.21548   0.22625   0.24189   0.24837   0.26560

 Mulliken charges:
               1
     1  Si   0.769054
     2  O   -0.382879
     3  H    0.178841
     4  O   -0.434398
     5  H    0.185838
     6  O   -0.671483
     7  H    0.239124
     8  O   -0.439968
     9  H    0.234651
    10  C   -0.021226
    11  H    0.110399
    12  H    0.117770
    13  C    0.016354
    14  H    0.107711
    15  H    0.083145
    16  O   -0.127044
    17  H    0.204679
    18  O   -0.411433
    19  H    0.240865
 Sum of Mulliken charges =  -0.00000

 Dipole moment (field-independent basis, Debye):
    X=             -0.6518    Y=             -1.1374    Z=              3.2782  Tot=              3.5306
 Quadrupole moment (field-independent basis, Debye-Ang):
   XX=            -58.1301   YY=            -51.5616   ZZ=            -65.6549
   XY=              2.2546   XZ=             -2.9383   YZ=             -3.4853

  Exact polarizability:      76.641      -1.513      72.834      -0.913      -0.555      66.766
 Approx polarizability:      75.239      -1.485      75.848       0.573       0.707      75.785

                      1                      2                      3
                      A                      A                      A
 Frequencies --     42.7283                65.1119               153.4460
 Red. masses --      4.7224                 5.8718                 3.2723
 Frc consts  --      0.0051                 0.0147                 0.0454
 IR Inten    --      2.1548                 3.4235                25.6293

                      4                      5                      6
                      A                      A                      A
 Frequencies --    163.8793               183.6405               192.6240
 Red. masses --      5.1618                 3.6341                 5.1508
 Frc consts  --      0.0817                 0.0722                 0.1126
 IR Inten    --      9.7922                 6.3091                10.3301

                      7                      8                      9
                      A                      A                      A
 Frequencies --    204.6939               218.1684               247.5003
 Red. masses --      4.2894                 3.1746                 1.2426
 Frc consts  --      0.1059                 0.0890                 0.0448
 IR Inten    --      1.1038                35.6672               110.2817

                     10                     11                     12
                      A                      A                      A
 Frequencies --    262.7852               298.1929               303.5164
 Red. masses --      2.9876                 1.9078                 2.6334
 Frc consts  --      0.1216                 0.1000                 0.1429
 IR Inten    --     13.5465                40.0612                19.5850

                     13                     14                     15
                      A                      A                      A
 Frequencies --    344.1143               379.3249               420.7032
 Red. masses --      3.5663                 6.8016                 4.8907
 Frc consts  --      0.2488                 0.5766                 0.5100
 IR Inten    --     12.6898                55.0575                31.6406

                     16                     17                     18
                      A                      A                      A
 Frequencies --    475.0517               478.8720               576.3519
 Red. masses --      1.1469                 8.7089                 2.6477
 Frc consts  --      0.1525                 1.1767                 0.5182
 IR Inten    --     94.1546               236.5977                 4.8162

                     19                     20                     21
                      A                      A                      A
 Frequencies --    692.7827               708.4229               803.4346
 Red. masses --      1.0789                 1.4062                 3.4487
 Frc consts  --      0.3051                 0.4158                 1.3116
 IR Inten    --    113.3195               155.6289               167.9725

                     22                     23                     24
                      A                      A                      A
 Frequencies --    822.5545               855.0009               867.7714
 Red. masses --      1.0862                 1.5931                 1.6488
 Frc consts  --      0.4330                 0.6861                 0.7315
 IR Inten    --    169.0458                47.7980                72.6999

                     25                     26                     27
                      A                      A                      A
 Frequencies --    886.3997               948.9484               964.6361
 Red. masses --      1.7674                 1.5746                 5.8943
 Frc consts  --      0.8182                 0.8354                 3.2315
 IR Inten    --     50.8055                57.1448               188.3578

                     28                     29                     30
                      A                      A                      A
 Frequencies --   1037.1431              1086.3385              1098.7882
 Red. masses --      3.7278                 1.2871                 2.1917
 Frc consts  --      2.3626                 0.8949                 1.5590
 IR Inten    --     97.4783                37.8656                61.3683

                     31                     32                     33
                      A                      A                      A
 Frequencies --   1135.3975              1195.2125              1247.3082
 Red. masses --      2.4537                 5.6350                 1.1307
 Frc consts  --      1.8636                 4.7428                 1.0364
 IR Inten    --     10.0742               331.9116                24.2130

                     34                     35                     36
                      A                      A                      A
 Frequencies --   1279.3043              1391.9075              1422.0609
 Red. masses --      1.1656                 1.2320                 1.2012
 Frc consts  --      1.1240                 1.4063                 1.4312
 IR Inten    --      4.5826                 6.7259                11.9517

                     37                     38                     39
                      A                      A                      A
 Frequencies --   1444.2204              1491.3982              1509.8880
 Red. masses --      1.2091                 1.1755                 1.0796
 Frc consts  --      1.4858                 1.5405                 1.4501
 IR Inten    --     59.4058                47.8832                 7.7085

                     40                     41                     42
                      A                      A                      A
 Frequencies --   1524.7606              1658.4870              3071.9822
 Red. masses --      1.0826                 1.0709                 1.0586
 Frc consts  --      1.4829                 1.7355                 5.8859
 IR Inten    --      5.2678                73.7182                27.7172

                     43                     44                     45
                      A                      A                      A
 Frequencies --   3107.4290              3125.8007              3189.1254
 Red. masses --      1.0703                 1.1006                 1.1085
 Frc consts  --      6.0889                 6.3358                 6.6424
 IR Inten    --     10.2053                23.9966                 3.4046

                     46                     47                     48
                      A                      A                      A
 Frequencies --   3446.4278              3491.5655              3652.7694
 Red. masses --      1.0655                 1.0677                 1.0638
 Frc consts  --      7.4564                 7.6690                 8.3629
 IR Inten    --    479.2313               425.5642               162.8191

                     49                     50                     51
                      A                      A                      A
 Frequencies --   3686.8481              3967.3564              3974.4817
 Red. masses --      1.0663                 1.0673                 1.0664
 Frc consts  --      8.5399                 9.8976                 9.9252
 IR Inten    --    479.6957                71.4655               105.1916

 - Thermochemistry -
 -------------------
 Temperature   298.150 Kelvin.  Pressure   1.00000 Atm.
 Atom     1 has atomic number 14 and mass  27.97693

 Molecular mass:   158.02467 amu.
 Principal axes and moments of inertia in atomic units:
                           1         2         3
     Eigenvalues --  1222.687781563.428842026.29342
           X            0.99972   0.01789  -0.01525
           Y           -0.01816   0.99968  -0.01785
           Z            0.01493   0.01812   0.99972
 This molecule is an asymmetric top.
 Rotational symmetry number  1.
 Warning -- assumption of classical behavior for rotation
           may cause significant error
 Rotational temperatures (Kelvin)      0.07084     0.05540     0.04275
 Rotational constants (GHZ):           1.47604     1.15435     0.89066
 Zero-point vibrational energy     393551.4 (Joules/Mol)
                                   94.06104 (Kcal/Mol)
 Warning -- explicit consideration of  18 degrees of freedom as
           vibrations may cause significant error
 Vibrational temperatures:     61.48    93.68   220.77   235.79   264.22
          (Kelvin)            277.14   294.51   313.90   356.10   378.09
                              429.03   436.69   495.10   545.76   605.30
                              683.49   688.99   829.24   996.76  1019.26
                             1155.96  1183.47  1230.16  1248.53  1275.33
                             1365.33  1387.90  1492.22  1563.00  1580.91
                             1633.58  1719.64  1794.60  1840.63  2002.64
                             2046.03  2077.91  2145.79  2172.39  2193.79
                             2386.19  4419.90  4470.90  4497.33  4588.44
                             4958.64  5023.58  5255.52  5304.55  5708.14
                             5718.39

 Zero-point correction=                           0.149896 (Hartree/Particle)
 Thermal correction to Energy=                    0.162155
 Thermal correction to Enthalpy=                  0.163099
 Thermal correction to Gibbs Free Energy=         0.112086
 Sum of electronic and zero-point Energies=           -823.171376
 Sum of electronic and thermal Energies=              -823.159117
 Sum of electronic and thermal Enthalpies=            -823.158173
 Sum of electronic and thermal Free Energies=         -823.209186

                     E (Thermal)             CV                S
                      KCal/Mol        Cal/Mol-Kelvin    Cal/Mol-Kelvin
 Total                  101.754             43.783            107.366
 Electronic               0.000              0.000              0.000
 Translational            0.889              2.981             41.082
 Rotational               0.889              2.981             29.739
 Vibrational             99.976             37.821             36.545
 Vibration     1          0.595              1.980              5.128
 Vibration     2          0.597              1.971              4.296
 Vibration     3          0.619              1.899              2.629
 Vibration     4          0.623              1.887              2.505
 Vibration     5          0.631              1.862              2.291
 Vibration     6          0.635              1.850              2.202
 Vibration     7          0.640              1.833              2.090
 Vibration     8          0.646              1.813              1.974
 Vibration     9          0.661              1.767              1.748
 Vibration    10          0.670              1.741              1.643
 Vibration    11          0.691              1.677              1.427
 Vibration    12          0.695              1.667              1.397
 Vibration    13          0.723              1.587              1.193
 Vibration    14          0.749              1.514              1.042
 Vibration    15          0.783              1.425              0.890
 Vibration    16          0.832              1.305              0.724
 Vibration    17          0.835              1.297              0.713
 Vibration    18          0.933              1.082              0.492

 Optimization completed.
    -- Stationary point found.
 Normal termination of Gaussian 16 at Tue Jan 30 21:12:58 2024.
