 Gaussian 16, Revision C.01,
 Gaussian 16:  ES64L-G16RevC.01  3-Jul-2019

 ---------------------------------------------
 # opt freq wb97xd/def2tzvpp geom=connectivity
 ---------------------------------------------

 --------------------------
 IRC P(=L)2(L) to H(=L)3 TS
 --------------------------
 Symbolic Z-matrix:
 Charge = -2 Multiplicity = 1

 SCF Done:  E(RwB97XD) =  -976.871299663     A.U. after   15 cycles
 SCF Done:  E(RwB97XD) =  -976.872188711     A.U. after   12 cycles
 SCF Done:  E(RwB97XD) =  -976.872950645     A.U. after   14 cycles
 SCF Done:  E(RwB97XD) =  -976.873415561     A.U. after   14 cycles
 SCF Done:  E(RwB97XD) =  -976.873871956     A.U. after   14 cycles
 SCF Done:  E(RwB97XD) =  -976.873966628     A.U. after   12 cycles
 SCF Done:  E(RwB97XD) =  -976.873965188     A.U. after   11 cycles
 SCF Done:  E(RwB97XD) =  -976.873976059     A.U. after   10 cycles
 SCF Done:  E(RwB97XD) =  -976.873977354     A.U. after    9 cycles
 SCF Done:  E(RwB97XD) =  -976.873977920     A.U. after    9 cycles
 SCF Done:  E(RwB97XD) =  -976.873977547     A.U. after    8 cycles
 SCF Done:  E(RwB97XD) =  -976.873977091     A.U. after    8 cycles
 SCF Done:  E(RwB97XD) =  -976.873977873     A.U. after    9 cycles
 SCF Done:  E(RwB97XD) =  -976.873976868     A.U. after    9 cycles
 Optimization completed.
    -- Stationary point found.
 Normal termination of Gaussian 16 at Tue Feb 13 07:54:07 2024.

 ----------------------------------------------------------------------
 #N Geom=AllCheck Guess=TCheck SCRF=Check GenChk RwB97XD/def2TZVPP Freq
 ----------------------------------------------------------------------

 Structure from the checkpoint file:  "PL3HL3_IRC_forward_productOpt.chk"
 --------------------------
 IRC P(=L)2(L) to H(=L)3 TS
 --------------------------
 Charge = -2 Multiplicity = 1

                         Standard orientation:
 ---------------------------------------------------------------------
 Center     Atomic      Atomic             Coordinates (Angstroms)
 Number     Number       Type             X           Y           Z
 ---------------------------------------------------------------------
      1         14           0       -0.000341    0.005111    0.000016
      2          8           0       -0.830884    1.230172    1.031767
      3          8           0        0.714310   -1.297201   -1.026683
      4          8           0       -0.695296   -1.308060    1.026072
      5          8           0        1.437731    0.088080    1.088860
      6          8           0        0.812208    1.242608   -1.030983
      7          8           0       -1.439317    0.067543   -1.088621
      8          6           0        2.131692    1.413771   -0.708241
      9          1           0        2.482387    2.437107   -0.954912
     10          1           0        2.785709    0.703865   -1.259180
     11          6           0        2.265173    1.139837    0.795194
     12          1           0        1.977431    2.057814    1.352060
     13          1           0        3.318661    0.916333    1.062407
     14          6           0       -2.281275    1.107836   -0.795307
     15          1           0       -2.005697    2.029754   -1.351778
     16          1           0       -3.331420    0.869989   -1.063267
     17          6           0       -2.152419    1.383178    0.708266
     18          1           0       -2.517397    2.401499    0.954975
     19          1           0       -2.796933    0.664149    1.258596
     20          6           0       -0.611077   -2.540893    0.436408
     21          1           0       -0.562865   -3.351519    1.192261
     22          1           0       -1.489634   -2.751243   -0.211709
     23          6           0        0.649464   -2.531138   -0.436691
     24          1           0        1.531145   -2.727391    0.211571
     25          1           0        0.614034   -3.342594   -1.192316
 ---------------------------------------------------------------------

 SCF Done:  E(RwB97XD) =  -976.873976868     A.U. after    1 cycles

 The electronic state is 1-A.
 Alpha  occ. eigenvalues --  -65.96881 -18.88225 -18.88223 -18.88206 -18.88203
 Alpha  occ. eigenvalues --  -18.88167 -18.88166 -10.02195 -10.02190 -10.02188
 Alpha  occ. eigenvalues --  -10.02175 -10.02152 -10.02150  -5.07380  -3.41967
 Alpha  occ. eigenvalues --   -3.41931  -3.41913  -0.81239  -0.78301  -0.78286
 Alpha  occ. eigenvalues --   -0.74333  -0.73270  -0.73165  -0.51525  -0.49323
 Alpha  occ. eigenvalues --   -0.49297  -0.38835  -0.37850  -0.37378  -0.30674
 Alpha  occ. eigenvalues --   -0.27764  -0.26507  -0.26465  -0.25387  -0.25246
 Alpha  occ. eigenvalues --   -0.24565  -0.20506  -0.20497  -0.18978  -0.18261
 Alpha  occ. eigenvalues --   -0.17839  -0.17624  -0.15548  -0.15084  -0.07590
 Alpha  occ. eigenvalues --   -0.06292  -0.06274  -0.06230  -0.04237  -0.04194
 Alpha  occ. eigenvalues --   -0.04001  -0.02863  -0.02153  -0.01197   0.00585
 Alpha  occ. eigenvalues --    0.01253
 Alpha virt. eigenvalues --    0.37138   0.37866   0.38142   0.40942   0.41331
 Alpha virt. eigenvalues --    0.41400   0.41829   0.42009   0.42986   0.43395
 Alpha virt. eigenvalues --    0.46519   0.46732   0.47966   0.48270   0.48319

 Mulliken charges:
               1
     1  Si   0.816728
     2  O   -0.494673
     3  O   -0.495425
     4  O   -0.495167
     5  O   -0.492966
     6  O   -0.494630
     7  O   -0.492960
     8  C    0.117308
     9  H   -0.057724
    10  H   -0.041914
    11  C    0.127443
    12  H   -0.041386
    13  H   -0.056241
    14  C    0.127438
    15  H   -0.041322
    16  H   -0.056179
    17  C    0.117342
    18  H   -0.057747
    19  H   -0.041948
    20  C    0.124372
    21  H   -0.052891
    22  H   -0.044481
    23  C    0.124278
    24  H   -0.044420
    25  H   -0.052834
 Sum of Mulliken charges =  -2.00000

 Dipole moment (field-independent basis, Debye):
    X=              0.0009    Y=             -0.0283    Z=             -0.0014  Tot=              0.0284
 Quadrupole moment (field-independent basis, Debye-Ang):
   XX=           -113.1685   YY=           -112.7480   ZZ=           -110.7999
   XY=             -0.0011   XZ=              0.0404   YZ=             -0.0016

  Exact polarizability:     141.085      -0.003     140.732       0.113       0.002     110.553
 Approx polarizability:     136.497      -0.017     138.221       0.958       0.006     122.702

                      1                      2                      3
                      A                      A                      A
 Frequencies --     62.3582                64.5621               104.7863
 Red. masses --      3.1449                 3.0817                 3.5924
 Frc consts  --      0.0072                 0.0076                 0.0232
 IR Inten    --      2.5457                 2.4702                 5.3862

                      4                      5                      6
                      A                      A                      A
 Frequencies --    164.9943               167.2666               181.6736
 Red. masses --      2.8326                 2.9844                 2.3094
 Frc consts  --      0.0454                 0.0492                 0.0449
 IR Inten    --      0.4809                 0.0785                 0.2517

                      7                      8                      9
                      A                      A                      A
 Frequencies --    273.0144               285.7000               311.2500
 Red. masses --      2.8999                 3.1174                 4.0746
 Frc consts  --      0.1274                 0.1499                 0.2326
 IR Inten    --      0.8820                 0.1157                 1.6450

                     10                     11                     12
                      A                      A                      A
 Frequencies --    348.7751               367.5009               367.6208
 Red. masses --      6.3782                 7.5916                 7.3676
 Frc consts  --      0.4571                 0.6041                 0.5866
 IR Inten    --      0.1869                 1.1155                 1.8593

                     13                     14                     15
                      A                      A                      A
 Frequencies --    373.4464               385.2618               390.8046
 Red. masses --      7.0022                 6.8559                 8.0420
 Frc consts  --      0.5754                 0.5996                 0.7237
 IR Inten    --      7.1489                 0.7365                 8.8328

                     16                     17                     18
                      A                      A                      A
 Frequencies --    551.0456               563.9246               564.9243
 Red. masses --      6.7895                11.0096                10.2970
 Frc consts  --      1.2147                 2.0628                 1.9362
 IR Inten    --    113.4441                 2.9092                 6.8261

                     19                     20                     21
                      A                      A                      A
 Frequencies --    600.4769               610.5838               610.8050
 Red. masses --     11.1509                 4.9068                 4.5500
 Frc consts  --      2.3689                 1.0778                 1.0002
 IR Inten    --      0.7531               248.4262               245.3054

                     22                     23                     24
                      A                      A                      A
 Frequencies --    651.8125               652.7350               656.5179
 Red. masses --      3.1991                 3.4976                 2.5433
 Frc consts  --      0.8008                 0.8780                 0.6459
 IR Inten    --    240.3955               319.0737               113.5369

                     25                     26                     27
                      A                      A                      A
 Frequencies --    914.7404               914.9083               915.7163
 Red. masses --      2.3436                 2.3626                 2.3299
 Frc consts  --      1.1554                 1.1652                 1.1511
 IR Inten    --     18.0222                12.6493                 1.0578

                     28                     29                     30
                      A                      A                      A
 Frequencies --    923.9601               925.4241               930.4295
 Red. masses --      1.8097                 1.8186                 1.8281
 Frc consts  --      0.9103                 0.9177                 0.9324
 IR Inten    --     20.2717                53.4438                57.1228

                     31                     32                     33
                      A                      A                      A
 Frequencies --   1143.1742              1143.5466              1147.8764
 Red. masses --      2.4598                 2.4379                 2.1016
 Frc consts  --      1.8940                 1.8783                 1.6315
 IR Inten    --    172.0342               168.1705                 0.1401

                     34                     35                     36
                      A                      A                      A
 Frequencies --   1174.1087              1175.8664              1183.7578
 Red. masses --      4.0031                 3.8702                 3.5229
 Frc consts  --      3.2513                 3.1528                 2.9086
 IR Inten    --      9.0904                27.4464                 9.9645

                     37                     38                     39
                      A                      A                      A
 Frequencies --   1190.3349              1190.7451              1210.1029
 Red. masses --      3.1536                 3.1322                 2.7733
 Frc consts  --      2.6327                 2.6166                 2.3927
 IR Inten    --    292.1133               306.2329                 0.0627

                     40                     41                     42
                      A                      A                      A
 Frequencies --   1249.9020              1249.9695              1250.6949
 Red. masses --      1.2372                 1.2283                 1.2323
 Frc consts  --      1.1388                 1.1307                 1.1358
 IR Inten    --     22.5411                17.5751                 6.5613

                     43                     44                     45
                      A                      A                      A
 Frequencies --   1251.5317              1252.5563              1254.3940
 Red. masses --      1.2683                 1.2557                 1.4162
 Frc consts  --      1.1705                 1.1608                 1.3129
 IR Inten    --     12.0581                 0.5070                 1.9621

                     46                     47                     48
                      A                      A                      A
 Frequencies --   1371.3311              1372.0155              1379.1659
 Red. masses --      1.3414                 1.3433                 1.3743
 Frc consts  --      1.4862                 1.4898                 1.5401
 IR Inten    --      9.7150                11.2211                21.3659

                     49                     50                     51
                      A                      A                      A
 Frequencies --   1383.8370              1384.7267              1387.1057
 Red. masses --      1.3183                 1.3209                 1.3357
 Frc consts  --      1.4874                 1.4922                 1.5142
 IR Inten    --     35.6423                29.8359                 4.3908

                     52                     53                     54
                      A                      A                      A
 Frequencies --   1484.5987              1485.3551              1486.6518
 Red. masses --      1.0922                 1.0923                 1.0928
 Frc consts  --      1.4183                 1.4199                 1.4231
 IR Inten    --      1.7728                 6.5113                 2.7932

                     55                     56                     57
                      A                      A                      A
 Frequencies --   1491.5398              1493.1021              1493.3293
 Red. masses --      1.0972                 1.0964                 1.0970
 Frc consts  --      1.4382                 1.4402                 1.4413
 IR Inten    --     10.5674                14.2369                 6.0511

                     58                     59                     60
                      A                      A                      A
 Frequencies --   2808.2974              2810.7142              2810.9145
 Red. masses --      1.0888                 1.0913                 1.0903
 Frc consts  --      5.0593                 5.0796                 5.0756
 IR Inten    --      8.8070                 6.9409                 6.7585

                     61                     62                     63
                      A                      A                      A
 Frequencies --   2823.3116              2825.2793              2825.4801
 Red. masses --      1.0529                 1.0506                 1.0514
 Frc consts  --      4.9448                 4.9412                 4.9453
 IR Inten    --    188.8285                57.8817               354.6236

                     64                     65                     66
                      A                      A                      A
 Frequencies --   2851.4944              2853.0959              2854.1287
 Red. masses --      1.1041                 1.0967                 1.1066
 Frc consts  --      5.2893                 5.2598                 5.3110
 IR Inten    --    237.5976               740.1431               637.7967

                     67                     68                     69
                      A                      A                      A
 Frequencies --   2854.9001              2855.9115              2867.9518
 Red. masses --      1.0693                 1.0626                 1.0600
 Frc consts  --      5.1350                 5.1061                 5.1369
 IR Inten    --    489.4847               822.8331                 2.8111

 - Thermochemistry -
 -------------------
 Temperature   298.150 Kelvin.  Pressure   1.00000 Atm.
 Atom     1 has atomic number 14 and mass  27.97693

 Molecular mass:   208.04032 amu.
 Principal axes and moments of inertia in atomic units:
                           1         2         3
     Eigenvalues --  1952.884512009.237432880.89198
           X            1.00000   0.00029  -0.00043
           Y           -0.00029   1.00000  -0.00001
           Z            0.00043   0.00001   1.00000
 This molecule is an asymmetric top.
 Rotational symmetry number  1.
 Warning -- assumption of classical behavior for rotation
           may cause significant error
 Rotational temperatures (Kelvin)      0.04435     0.04311     0.03006
 Rotational constants (GHZ):           0.92414     0.89822     0.62645
 Zero-point vibrational energy     503387.5 (Joules/Mol)
                                  120.31250 (Kcal/Mol)
 Warning -- explicit consideration of  21 degrees of freedom as
           vibrations may cause significant error
 Vibrational temperatures:     89.72    92.89   150.76   237.39   240.66
          (Kelvin)            261.39   392.81   411.06   447.82   501.81
                              528.75   528.92   537.31   554.31   562.28
                              792.83   811.36   812.80   863.95   878.49
                              878.81   937.81   939.14   944.58  1316.11
                             1316.35  1317.51  1329.37  1331.48  1338.68
                             1644.77  1645.31  1651.54  1689.28  1691.81
                             1703.16  1712.63  1713.22  1741.07  1798.33
                             1798.43  1799.47  1800.67  1802.15  1804.79
                             1973.04  1974.02  1984.31  1991.03  1992.31
                             1995.74  2136.01  2137.09  2138.96  2145.99
                             2148.24  2148.57  4040.51  4043.99  4044.28
                             4062.12  4064.95  4065.24  4102.66  4104.97
                             4106.45  4107.56  4109.02  4126.34

 Zero-point correction=                           0.191730 (Hartree/Particle)
 Thermal correction to Energy=                    0.204095
 Thermal correction to Enthalpy=                  0.205039
 Thermal correction to Gibbs Free Energy=         0.153507
 Sum of electronic and zero-point Energies=           -976.682247
 Sum of electronic and thermal Energies=              -976.669882
 Sum of electronic and thermal Enthalpies=            -976.668938
 Sum of electronic and thermal Free Energies=         -976.720470

                     E (Thermal)             CV                S
                      KCal/Mol        Cal/Mol-Kelvin    Cal/Mol-Kelvin
 Total                  128.071             47.935            108.458
 Electronic               0.000              0.000              0.000
 Translational            0.889              2.981             41.902
 Rotational               0.889              2.981             30.803
 Vibrational            126.294             41.974             35.754
 Vibration     1          0.597              1.972              4.381
 Vibration     2          0.597              1.971              4.313
 Vibration     3          0.605              1.945              3.363
 Vibration     4          0.623              1.885              2.492
 Vibration     5          0.624              1.883              2.466
 Vibration     6          0.630              1.865              2.311
 Vibration     7          0.676              1.723              1.577
 Vibration     8          0.683              1.700              1.499
 Vibration     9          0.700              1.652              1.356
 Vibration    10          0.726              1.578              1.172
 Vibration    11          0.740              1.539              1.090
 Vibration    12          0.740              1.539              1.090
 Vibration    13          0.745              1.527              1.066
 Vibration    14          0.754              1.502              1.018
 Vibration    15          0.758              1.490              0.997
 Vibration    16          0.906              1.137              0.542
 Vibration    17          0.920              1.109              0.516
 Vibration    18          0.921              1.107              0.514
 Vibration    19          0.959              1.031              0.449
 Vibration    20          0.970              1.009              0.432
 Vibration    21          0.970              1.009              0.431

 Optimization completed.
    -- Stationary point found.
 Normal termination of Gaussian 16 at Tue Feb 13 14:02:37 2024.
