 Gaussian 16, Revision C.01,
 Gaussian 16:  ES64L-G16RevC.01  3-Jul-2019

 ---------------------------------------------
 # opt freq wb97xd/def2tzvpp geom=connectivity
 ---------------------------------------------

 -----------------------------
 IRC for PbiL collapse to QbiL
 -----------------------------
 Symbolic Z-matrix:
 Charge = -1 Multiplicity = 1

 SCF Done:  E(RwB97XD) =  -746.338537345     A.U. after   14 cycles
 SCF Done:  E(RwB97XD) =  -746.341871304     A.U. after   12 cycles
 SCF Done:  E(RwB97XD) =  -746.342737643     A.U. after   15 cycles
 SCF Done:  E(RwB97XD) =  -746.343943534     A.U. after   14 cycles
 SCF Done:  E(RwB97XD) =  -746.344381608     A.U. after   11 cycles
 SCF Done:  E(RwB97XD) =  -746.345070638     A.U. after   12 cycles
 SCF Done:  E(RwB97XD) =  -746.345245416     A.U. after   11 cycles
 SCF Done:  E(RwB97XD) =  -746.345374171     A.U. after   12 cycles
 SCF Done:  E(RwB97XD) =  -746.345400029     A.U. after   10 cycles
 SCF Done:  E(RwB97XD) =  -746.345445379     A.U. after   11 cycles
 SCF Done:  E(RwB97XD) =  -746.346095048     A.U. after    8 cycles
 SCF Done:  E(RwB97XD) =  -746.346095247     A.U. after    8 cycles
 SCF Done:  E(RwB97XD) =  -746.346095458     A.U. after    8 cycles
 SCF Done:  E(RwB97XD) =  -746.346095193     A.U. after    9 cycles
 SCF Done:  E(RwB97XD) =  -746.346095832     A.U. after    9 cycles
 SCF Done:  E(RwB97XD) =  -746.346095967     A.U. after    7 cycles
 SCF Done:  E(RwB97XD) =  -746.346095854     A.U. after    7 cycles
 SCF Done:  E(RwB97XD) =  -746.346096036     A.U. after    8 cycles
 SCF Done:  E(RwB97XD) =  -746.346096066     A.U. after    6 cycles
 Optimization completed.
    -- Stationary point found.
 Normal termination of Gaussian 16 at Sun Feb 18 19:15:29 2024.

 ----------------------------------------------------------------------
 #N Geom=AllCheck Guess=TCheck SCRF=Check GenChk RwB97XD/def2TZVPP Freq
 ----------------------------------------------------------------------

 Structure from the checkpoint file:  "IRC_PbiL_collapseTo_QbiL_Forward_endpointOpt.chk"
 -----------------------------
 IRC for PbiL collapse to QbiL
 -----------------------------
 Charge = -1 Multiplicity = 1

                         Standard orientation:
 ---------------------------------------------------------------------
 Center     Atomic      Atomic             Coordinates (Angstroms)
 Number     Number       Type             X           Y           Z
 ---------------------------------------------------------------------
      1         14           0       -0.154085    0.038172    0.080874
      2          8           0       -0.803746   -1.391580   -0.503655
      3          1           0       -0.189933   -1.864720   -1.059692
      4          8           0       -3.721095    0.159258   -0.034787
      5          1           0       -3.392401   -0.673098   -0.373485
      6          8           0        1.076175   -0.359477    1.182762
      7          8           0       -1.229665    1.025658    0.572090
      8          1           0       -2.874152    0.592267    0.234101
      9          8           0        0.946362    0.486658   -1.141364
     10          6           0        2.238027    0.610370   -0.618910
     11          1           0        2.983788    0.381483   -1.388794
     12          1           0        2.416460    1.637075   -0.268592
     13          6           0        2.326492   -0.365056    0.561927
     14          1           0        2.575354   -1.373934    0.193442
     15          1           0        3.106711   -0.069491    1.272310
 ---------------------------------------------------------------------

 SCF Done:  E(RwB97XD) =  -746.346096066     A.U. after    1 cycles

 The electronic state is 1-A.
 Alpha  occ. eigenvalues --  -66.10446 -19.08711 -19.08496 -19.08344 -19.04096
 Alpha  occ. eigenvalues --  -18.98309 -10.20180 -10.20075  -5.22314  -3.56978
 Alpha  occ. eigenvalues --   -3.56848  -3.56529  -0.99502  -0.93736  -0.93399
 Alpha  occ. eigenvalues --   -0.90544  -0.80458  -0.68861  -0.56986  -0.47066
 Alpha  occ. eigenvalues --   -0.45165  -0.44101  -0.41772  -0.40566  -0.37372
 Alpha  occ. eigenvalues --   -0.36330  -0.30966  -0.29375  -0.27186  -0.26397
 Alpha  occ. eigenvalues --   -0.25901  -0.23499  -0.22425  -0.21183  -0.20381
 Alpha  occ. eigenvalues --   -0.16937  -0.16642
 Alpha virt. eigenvalues --    0.22659   0.24805   0.26899   0.28212   0.30116
 Alpha virt. eigenvalues --    0.30762   0.32738   0.33658   0.35717   0.37635
 Alpha virt. eigenvalues --    0.38720   0.39617   0.40568   0.44028   0.44629

 Mulliken charges:
               1
     1  Si   0.772383
     2  O   -0.443881
     3  H    0.142314
     4  O   -0.533483
     5  H    0.174112
     6  O   -0.437306
     7  O   -0.737047
     8  H    0.279150
     9  O   -0.453853
    10  C    0.070250
    11  H    0.021970
    12  H    0.033683
    13  C    0.068085
    14  H    0.015304
    15  H    0.028320
 Sum of Mulliken charges =  -1.00000

 Dipole moment (field-independent basis, Debye):
    X=              8.0301    Y=             -3.0308    Z=             -1.9938  Tot=              8.8115
 Quadrupole moment (field-independent basis, Debye-Ang):
   XX=            -83.4703   YY=            -59.1422   ZZ=            -61.8978
   XY=              5.1046   XZ=              1.5463   YZ=              2.0041

  Exact polarizability:      83.253      -0.131      63.549      -0.592       1.967      58.937
 Approx polarizability:      76.411      -1.235      68.189      -1.251       3.233      64.715

                      1                      2                      3
                      A                      A                      A
 Frequencies --     19.6215                43.4244                80.1688
 Red. masses --      8.7026                 4.8918                 4.4113
 Frc consts  --      0.0020                 0.0054                 0.0167
 IR Inten    --      0.8630                 0.7931                 1.6794

                      4                      5                      6
                      A                      A                      A
 Frequencies --    155.9093               203.0586               229.9872
 Red. masses --      1.8277                 3.0135                 2.4592
 Frc consts  --      0.0262                 0.0732                 0.0766
 IR Inten    --     33.9543                 1.1076                20.5056

                      7                      8                      9
                      A                      A                      A
 Frequencies --    254.4936               298.0480               333.6637
 Red. masses --      1.0805                 3.0850                 3.8399
 Frc consts  --      0.0412                 0.1615                 0.2519
 IR Inten    --     42.8062                22.8753                23.8589

                     10                     11                     12
                      A                      A                      A
 Frequencies --    368.9794               419.0453               486.5726
 Red. masses --      8.6468                 9.4286                 1.1653
 Frc consts  --      0.6936                 0.9755                 0.1626
 IR Inten    --     39.5028                55.6586                48.6773

                     13                     14                     15
                      A                      A                      A
 Frequencies --    518.3061               608.2208               716.2832
 Red. masses --      5.4095                 2.9315                 8.3419
 Frc consts  --      0.8562                 0.6389                 2.5216
 IR Inten    --     36.8916                 2.5437                43.3420

                     16                     17                     18
                      A                      A                      A
 Frequencies --    723.2757               828.4291               858.0433
 Red. masses --      5.8466                10.5444                 1.0579
 Frc consts  --      1.8020                 4.2637                 0.4589
 IR Inten    --    111.3439               231.3862               111.2196

                     19                     20                     21
                      A                      A                      A
 Frequencies --    900.8988               914.0797               926.7148
 Red. masses --      1.4028                 1.5278                 2.4845
 Frc consts  --      0.6708                 0.7521                 1.2571
 IR Inten    --    147.8772                73.8728                 9.2028

                     22                     23                     24
                      A                      A                      A
 Frequencies --   1141.8918              1146.8532              1167.5487
 Red. masses --      3.7014                 4.4419                 2.5780
 Frc consts  --      2.8436                 3.4422                 2.0705
 IR Inten    --    111.6267                36.7721               110.2918

                     25                     26                     27
                      A                      A                      A
 Frequencies --   1193.6476              1259.3510              1264.4557
 Red. masses --     14.0236                 1.1406                 1.1643
 Frc consts  --     11.7723                 1.0658                 1.0968
 IR Inten    --    429.4886                 2.8903                19.9412

                     28                     29                     30
                      A                      A                      A
 Frequencies --   1381.4284              1395.9694              1515.2018
 Red. masses --      1.2945                 1.3104                 1.0877
 Frc consts  --      1.4555                 1.5046                 1.4712
 IR Inten    --      5.1530                 5.5496                 0.5196

                     31                     32                     33
                      A                      A                      A
 Frequencies --   1521.4141              1733.7543              2937.1215
 Red. masses --      1.0933                 1.0759                 1.0722
 Frc consts  --      1.4911                 1.9054                 5.4497
 IR Inten    --      1.7668               203.0774               108.5593

                     34                     35                     36
                      A                      A                      A
 Frequencies --   2974.3116              3026.0806              3032.6313
 Red. masses --      1.0645                 1.0857                 1.1008
 Frc consts  --      5.5484                 5.8578                 5.9649
 IR Inten    --     94.0974               149.6767               100.9640

                     37                     38                     39
                      A                      A                      A
 Frequencies --   3349.4206              3933.1938              3972.5202
 Red. masses --      1.0649                 1.0642                 1.0656
 Frc consts  --      7.0385                 9.6999                 9.9076
 IR Inten    --   1042.1173                14.3876                16.8345

 - Thermochemistry -
 -------------------
 Temperature   298.150 Kelvin.  Pressure   1.00000 Atm.
 Atom     1 has atomic number 14 and mass  27.97693

 Molecular mass:   139.00628 amu.
 Principal axes and moments of inertia in atomic units:
                           1         2         3
     Eigenvalues --   483.192391897.755281911.20229
           X            0.99998   0.00504   0.00258
           Y           -0.00557   0.95641   0.29196
           Z           -0.00100  -0.29197   0.95643
 This molecule is an asymmetric top.
 Rotational symmetry number  1.
 Warning -- assumption of classical behavior for rotation
           may cause significant error
 Rotational temperatures (Kelvin)      0.17925     0.04564     0.04532
 Rotational constants (GHZ):           3.73504     0.95099     0.94430
 Zero-point vibrational energy     286111.0 (Joules/Mol)
                                   68.38216 (Kcal/Mol)
 Warning -- explicit consideration of  14 degrees of freedom as
           vibrations may cause significant error
 Vibrational temperatures:     28.23    62.48   115.34   224.32   292.16
          (Kelvin)            330.90   366.16   428.82   480.07   530.88
                              602.91   700.07   745.73   875.09  1030.57
                             1040.63  1191.92  1234.53  1296.19  1315.16
                             1333.34  1642.93  1650.07  1679.84  1717.39
                             1811.93  1819.27  1987.57  2008.49  2180.04
                             2188.98  2494.49  4225.86  4279.37  4353.86
                             4363.28  4819.07  5658.99  5715.57

 Zero-point correction=                           0.108974 (Hartree/Particle)
 Thermal correction to Energy=                    0.119177
 Thermal correction to Enthalpy=                  0.120121
 Thermal correction to Gibbs Free Energy=         0.071840
 Sum of electronic and zero-point Energies=           -746.237122
 Sum of electronic and thermal Energies=              -746.226920
 Sum of electronic and thermal Enthalpies=            -746.225975
 Sum of electronic and thermal Free Energies=         -746.274256

                     E (Thermal)             CV                S
                      KCal/Mol        Cal/Mol-Kelvin    Cal/Mol-Kelvin
 Total                   74.784             34.773            101.616
 Electronic               0.000              0.000              0.000
 Translational            0.889              2.981             40.700
 Rotational               0.889              2.981             28.951
 Vibrational             73.007             28.811             31.965
 Vibration     1          0.593              1.986              6.672
 Vibration     2          0.595              1.980              5.096
 Vibration     3          0.600              1.963              3.887
 Vibration     4          0.620              1.896              2.599
 Vibration     5          0.639              1.836              2.105
 Vibration     6          0.652              1.795              1.879
 Vibration     7          0.665              1.755              1.699
 Vibration     8          0.691              1.677              1.428
 Vibration     9          0.715              1.608              1.242
 Vibration    10          0.741              1.536              1.084
 Vibration    11          0.782              1.429              0.895
 Vibration    12          0.843              1.280              0.693
 Vibration    13          0.873              1.209              0.614
 Vibration    14          0.967              1.014              0.436

                           ! Non-Optimized Parameters !
 Normal termination of Gaussian 16 at Sun Feb 18 19:40:09 2024.
