 Gaussian 16, Revision C.01,
 Gaussian 16:  ES64L-G16RevC.01  3-Jul-2019

 ---------------------------------------------
 # opt freq wb97xd/def2tzvpp geom=connectivity
 ---------------------------------------------

 irc for proton transfer with potential SN1 like transition state in L
 attack on QbiL
 ----------------------------------------------------------------------
 Symbolic Z-matrix:
 Charge =  0 Multiplicity = 1

 SCF Done:  E(RwB97XD) =  -900.695230350     A.U. after   14 cycles
 SCF Done:  E(RwB97XD) =  -900.694986759     A.U. after   11 cycles
 SCF Done:  E(RwB97XD) =  -900.694626696     A.U. after   11 cycles
 SCF Done:  E(RwB97XD) =  -900.694555247     A.U. after   11 cycles
 SCF Done:  E(RwB97XD) =  -900.695271622     A.U. after    9 cycles
 SCF Done:  E(RwB97XD) =  -900.695147159     A.U. after   11 cycles
 SCF Done:  E(RwB97XD) =  -900.695466310     A.U. after   10 cycles
 SCF Done:  E(RwB97XD) =  -900.695375719     A.U. after   11 cycles
 SCF Done:  E(RwB97XD) =  -900.695491436     A.U. after   11 cycles
 SCF Done:  E(RwB97XD) =  -900.695587061     A.U. after   10 cycles
 SCF Done:  E(RwB97XD) =  -900.695649303     A.U. after    8 cycles
 SCF Done:  E(RwB97XD) =  -900.695661187     A.U. after    9 cycles
 SCF Done:  E(RwB97XD) =  -900.695670858     A.U. after    9 cycles
 SCF Done:  E(RwB97XD) =  -900.695678843     A.U. after    9 cycles
 SCF Done:  E(RwB97XD) =  -900.695680673     A.U. after    8 cycles
 SCF Done:  E(RwB97XD) =  -900.695682302     A.U. after    8 cycles
 SCF Done:  E(RwB97XD) =  -900.695682514     A.U. after    7 cycles
 SCF Done:  E(RwB97XD) =  -900.695682639     A.U. after    6 cycles
 SCF Done:  E(RwB97XD) =  -900.695682727     A.U. after    7 cycles
 Optimization completed.
    -- Stationary point found.
 Normal termination of Gaussian 16 at Fri Mar 29 22:59:20 2024.

 ----------------------------------------------------------------------
 #N Geom=AllCheck Guess=TCheck SCRF=Check GenChk RwB97XD/def2TZVPP Freq
 ----------------------------------------------------------------------

 ----------------------------------------------------------------------
 irc for proton transfer with potential SN1 like transition state in L
 attack on QbiL
 ----------------------------------------------------------------------
 Charge =  0 Multiplicity = 1

                         Standard orientation:
 ---------------------------------------------------------------------
 Center     Atomic      Atomic             Coordinates (Angstroms)
 Number     Number       Type             X           Y           Z
 ---------------------------------------------------------------------
      1         14           0        0.301468    0.166046   -0.279434
      2          8           0        1.496845   -0.408644   -1.235269
      3          8           0        2.192644    2.333211    0.525598
      4          1           0        2.687163    2.528531   -0.269161
      5          8           0       -0.342184    1.554909   -0.424274
      6          1           0        1.265338    2.434927    0.261487
      7          8           0        0.711804   -0.587149    1.118915
      8          6           0       -2.131456   -1.247820    0.293157
      9          1           0       -1.589454   -1.782179    1.066939
     10          1           0       -2.863623   -1.898898   -0.180101
     11          6           0       -2.755128    0.059293    0.783728
     12          1           0       -2.102331    0.528073    1.524093
     13          1           0       -3.708879   -0.165027    1.263518
     14          8           0       -1.157457   -0.929626   -0.750982
     15          1           0       -1.664384   -0.368275   -1.364763
     16          8           0       -2.972061    0.914504   -0.308341
     17          1           0       -2.150648    1.442784   -0.400623
     18          6           0        2.035506   -1.103816    0.981853
     19          1           0        2.128231   -2.011563    1.576826
     20          1           0        2.740029   -0.354151    1.345574
     21          6           0        2.251331   -1.378994   -0.515216
     22          1           0        3.301202   -1.290439   -0.791673
     23          1           0        1.898569   -2.378048   -0.786351
 ---------------------------------------------------------------------

 SCF Done:  E(RwB97XD) =  -900.695682727     A.U. after    1 cycles

 The electronic state is 1-A.
 Alpha  occ. eigenvalues --  -66.30070 -19.35840 -19.26021 -19.25975 -19.25372
 Alpha  occ. eigenvalues --  -19.22186 -19.18343 -10.37787 -10.35025 -10.34753
 Alpha  occ. eigenvalues --  -10.34432  -5.42084  -3.76843  -3.76586  -3.76197
 Alpha  occ. eigenvalues --   -1.23069  -1.15984  -1.13329  -1.10349  -1.08723
 Alpha  occ. eigenvalues --   -1.00822  -0.87873  -0.84404  -0.75668  -0.72606
 Alpha  occ. eigenvalues --   -0.69235  -0.63412  -0.62814  -0.61260  -0.59673
 Alpha  occ. eigenvalues --   -0.59269  -0.58829  -0.56926  -0.52827  -0.52577
 Alpha  occ. eigenvalues --   -0.52064  -0.50935  -0.48305  -0.45900  -0.45225
 Alpha  occ. eigenvalues --   -0.43799  -0.42755  -0.41438  -0.41123  -0.38946
 Alpha  occ. eigenvalues --   -0.38605  -0.37667  -0.36618  -0.35763
 Alpha virt. eigenvalues --    0.07473   0.11114   0.11894   0.12076   0.13848
 Alpha virt. eigenvalues --    0.15383   0.15986   0.16572   0.16745   0.17604
 Alpha virt. eigenvalues --    0.18445   0.19182   0.20515   0.20792   0.21635

 Mulliken charges:
               1
     1  Si   0.750131
     2  O   -0.391986
     3  O   -0.404517
     4  H    0.183937
     5  O   -0.687469
     6  H    0.231578
     7  O   -0.403101
     8  C   -0.026125
     9  H    0.108641
    10  H    0.119074
    11  C    0.038911
    12  H    0.101973
    13  H    0.083515
    14  O   -0.129065
    15  H    0.199102
    16  O   -0.413491
    17  H    0.244333
    18  C    0.048275
    19  H    0.073492
    20  H    0.089091
    21  C    0.034093
    22  H    0.079338
    23  H    0.070270
 Sum of Mulliken charges =  -0.00000

 Dipole moment (field-independent basis, Debye):
    X=             -0.6492    Y=             -5.3178    Z=             -0.0574  Tot=              5.3576
 Quadrupole moment (field-independent basis, Debye-Ang):
   XX=            -65.8936   YY=            -73.0348   ZZ=            -73.4095
   XY=              2.9270   XZ=             -4.4532   YZ=             -3.1890

  Exact polarizability:     104.352      -2.139      89.855      -0.886      -1.828      79.856
 Approx polarizability:     100.533      -2.261      95.472      -0.160      -3.142      92.577

                      1                      2                      3
                      A                      A                      A
 Frequencies --     42.3373                47.3973                77.1155
 Red. masses --      5.0996                 4.7941                 7.5942
 Frc consts  --      0.0054                 0.0063                 0.0266
 IR Inten    --      1.2475                 1.1242                18.5949

                      4                      5                      6
                      A                      A                      A
 Frequencies --     90.9892               128.7652               143.7899
 Red. masses --      3.4402                 6.0065                 3.3485
 Frc consts  --      0.0168                 0.0587                 0.0408
 IR Inten    --      0.9896                 7.4429                 4.0263

                      7                      8                      9
                      A                      A                      A
 Frequencies --    179.9549               190.4895               220.7170
 Red. masses --      3.1264                 4.3255                 2.2293
 Frc consts  --      0.0597                 0.0925                 0.0640
 IR Inten    --     19.7318                 4.6080                 9.1835

                     10                     11                     12
                      A                      A                      A
 Frequencies --    229.4744               264.1819               289.6029
 Red. masses --      2.1117                 1.6834                 2.7108
 Frc consts  --      0.0655                 0.0692                 0.1340
 IR Inten    --     51.5398                44.7935                 4.2850

                     13                     14                     15
                      A                      A                      A
 Frequencies --    307.1459               325.2236               359.8439
 Red. masses --      3.4474                 2.5314                 2.0320
 Frc consts  --      0.1916                 0.1578                 0.1550
 IR Inten    --     30.4078                42.7347                54.6017

                     16                     17                     18
                      A                      A                      A
 Frequencies --    408.6705               441.5667               511.9147
 Red. masses --      5.5820                 5.3666                 9.2338
 Frc consts  --      0.5493                 0.6165                 1.4257
 IR Inten    --    159.1447               148.6717               180.3642

                     19                     20                     21
                      A                      A                      A
 Frequencies --    571.4034               625.1194               712.8645
 Red. masses --      2.6748                 2.9091                 1.1591
 Frc consts  --      0.5145                 0.6698                 0.3471
 IR Inten    --      3.6203                 4.0150                92.0339

                     22                     23                     24
                      A                      A                      A
 Frequencies --    731.6974               791.8029               853.3912
 Red. masses --      1.3082                 9.3952                 4.1695
 Frc consts  --      0.4127                 3.4705                 1.7891
 IR Inten    --    281.7122                36.4000                84.4843

                     25                     26                     27
                      A                      A                      A
 Frequencies --    863.8875               882.9539               891.2763
 Red. masses --      1.8668                 1.7863                 1.9390
 Frc consts  --      0.8208                 0.8205                 0.9075
 IR Inten    --     52.1370                26.3688                49.1638

                     28                     29                     30
                      A                      A                      A
 Frequencies --    930.3743               953.8748              1031.1869
 Red. masses --      2.6207                 1.4627                 3.1625
 Frc consts  --      1.3365                 0.7841                 1.9813
 IR Inten    --     33.2165                16.2929               109.6726

                     31                     32                     33
                      A                      A                      A
 Frequencies --   1098.0702              1101.7143              1109.3567
 Red. masses --      3.0764                 3.2477                 6.6051
 Frc consts  --      2.1855                 2.3226                 4.7893
 IR Inten    --    130.0416                15.0141                99.9491

                     34                     35                     36
                      A                      A                      A
 Frequencies --   1136.4384              1157.6829              1215.2209
 Red. masses --      2.6439                 1.7616                 3.6279
 Frc consts  --      2.0118                 1.3911                 3.1566
 IR Inten    --     19.8835                13.3964               329.8403

                     37                     38                     39
                      A                      A                      A
 Frequencies --   1246.1389              1267.4445              1272.6408
 Red. masses --      1.3771                 1.1324                 1.1486
 Frc consts  --      1.2600                 1.0718                 1.0961
 IR Inten    --     68.1284                15.2496                18.7560

                     40                     41                     42
                      A                      A                      A
 Frequencies --   1275.9850              1388.3845              1390.7424
 Red. masses --      1.1813                 1.2362                 1.2701
 Frc consts  --      1.1332                 1.4040                 1.4474
 IR Inten    --      3.3636                 6.4184                 1.6297

                     43                     44                     45
                      A                      A                      A
 Frequencies --   1408.9944              1414.3463              1434.5359
 Red. masses --      1.2707                 1.2126                 1.2281
 Frc consts  --      1.4863                 1.4291                 1.4890
 IR Inten    --      0.1404                 9.8277                49.7550

                     46                     47                     48
                      A                      A                      A
 Frequencies --   1496.4586              1502.7627              1519.8176
 Red. masses --      1.1606                 1.0951                 1.0807
 Frc consts  --      1.5313                 1.4571                 1.4708
 IR Inten    --     39.9952                16.6684                 7.7974

                     49                     50                     51
                      A                      A                      A
 Frequencies --   1522.3333              1531.0639              1669.3059
 Red. masses --      1.0855                 1.0879                 1.0787
 Frc consts  --      1.4822                 1.5026                 1.7710
 IR Inten    --      3.4515                 1.4266                46.3329

                     52                     53                     54
                      A                      A                      A
 Frequencies --   3046.3201              3060.0776              3072.8549
 Red. masses --      1.0661                 1.0598                 1.0589
 Frc consts  --      5.8293                 5.8471                 5.8908
 IR Inten    --     47.8097                23.7592                36.9995

                     55                     56                     57
                      A                      A                      A
 Frequencies --   3105.5132              3117.7854              3119.2621
 Red. masses --      1.0801                 1.0997                 1.0880
 Frc consts  --      6.1373                 6.2984                 6.2372
 IR Inten    --      3.0145                31.1459                39.5539

                     58                     59                     60
                      A                      A                      A
 Frequencies --   3134.4663              3191.2569              3478.2936
 Red. masses --      1.1100                 1.1087                 1.0678
 Frc consts  --      6.4256                 6.6528                 7.6117
 IR Inten    --     25.3861                 2.9320               566.5389

                     61                     62                     63
                      A                      A                      A
 Frequencies --   3653.8005              3686.1359              3954.6681
 Red. masses --      1.0639                 1.0593                 1.0691
 Frc consts  --      8.3680                 8.4802                 9.8512
 IR Inten    --    167.7676               240.5242                60.4439

 - Thermochemistry -
 -------------------
 Temperature   298.150 Kelvin.  Pressure   1.00000 Atm.
 Atom     1 has atomic number 14 and mass  27.97693

 Molecular mass:   184.04032 amu.
 Principal axes and moments of inertia in atomic units:
                           1         2         3
     Eigenvalues --  1256.359442559.625623098.87135
           X            0.99997   0.00299  -0.00654
           Y           -0.00307   0.99992  -0.01249
           Z            0.00650   0.01251   0.99990
 This molecule is an asymmetric top.
 Rotational symmetry number  1.
 Warning -- assumption of classical behavior for rotation
           may cause significant error
 Rotational temperatures (Kelvin)      0.06894     0.03384     0.02795
 Rotational constants (GHZ):           1.43648     0.70508     0.58239
 Zero-point vibrational energy     489744.5 (Joules/Mol)
                                  117.05174 (Kcal/Mol)
 Warning -- explicit consideration of  19 degrees of freedom as
           vibrations may cause significant error
 Vibrational temperatures:     60.91    68.19   110.95   130.91   185.26
          (Kelvin)            206.88   258.91   274.07   317.56   330.16
                              380.10   416.67   441.91   467.92   517.74
                              587.99   635.32   736.53   822.12   899.41
                             1025.65  1052.75  1139.23  1227.84  1242.94
                             1270.37  1282.35  1338.60  1372.41  1483.65
                             1579.88  1585.12  1596.12  1635.08  1665.65
                             1748.43  1792.92  1823.57  1831.05  1835.86
                             1997.58  2000.97  2027.23  2034.93  2063.98
                             2153.07  2162.14  2186.68  2190.30  2202.86
                             2401.76  4382.98  4402.77  4421.15  4468.14
                             4485.80  4487.92  4509.80  4591.51  5004.49
                             5257.00  5303.53  5689.89

 Zero-point correction=                           0.186534 (Hartree/Particle)
 Thermal correction to Energy=                    0.200198
 Thermal correction to Enthalpy=                  0.201142
 Thermal correction to Gibbs Free Energy=         0.145791
 Sum of electronic and zero-point Energies=           -900.509149
 Sum of electronic and thermal Energies=              -900.495485
 Sum of electronic and thermal Enthalpies=            -900.494541
 Sum of electronic and thermal Free Energies=         -900.549892

                     E (Thermal)             CV                S
                      KCal/Mol        Cal/Mol-Kelvin    Cal/Mol-Kelvin
 Total                  125.626             48.116            116.496
 Electronic               0.000              0.000              0.000
 Translational            0.889              2.981             41.536
 Rotational               0.889              2.981             30.678
 Vibrational            123.848             42.154             44.282
 Vibration     1          0.595              1.980              5.147
 Vibration     2          0.595              1.979              4.923
 Vibration     3          0.599              1.964              3.963
 Vibration     4          0.602              1.956              3.639
 Vibration     5          0.611              1.924              2.964
 Vibration     6          0.616              1.909              2.753
 Vibration     7          0.629              1.867              2.329
 Vibration     8          0.634              1.853              2.223
 Vibration     9          0.647              1.810              1.953
 Vibration    10          0.652              1.796              1.883
 Vibration    11          0.671              1.739              1.634
 Vibration    12          0.686              1.693              1.476
 Vibration    13          0.697              1.660              1.378
 Vibration    14          0.709              1.625              1.284
 Vibration    15          0.734              1.555              1.123
 Vibration    16          0.773              1.451              0.931
 Vibration    17          0.801              1.379              0.822
 Vibration    18          0.867              1.224              0.629
 Vibration    19          0.928              1.093              0.502

                           ! Non-Optimized Parameters !
 Normal termination of Gaussian 16 at Sat Mar 30 00:31:06 2024.
