 Gaussian 16, Revision C.01,
 Gaussian 16:  ES64L-G16RevC.01  3-Jul-2019

 ----------------------------------------------------
 # opt=calcfc freq wb97xd/def2tzvpp geom=connectivity
 ----------------------------------------------------

 --------------------------------------------------------
 Convert TS for PbiL to QbiL collapse to PbiLmL to QbiLmL
 --------------------------------------------------------
 Symbolic Z-matrix:
 Charge = -1 Multiplicity = 1

 SCF Done:  E(RwB97XD) =  -900.209059298     A.U. after   14 cycles
 SCF Done:  E(RwB97XD) =  -900.211191504     A.U. after   13 cycles
 SCF Done:  E(RwB97XD) =  -900.211449581     A.U. after   14 cycles
 SCF Done:  E(RwB97XD) =  -900.209569748     A.U. after   13 cycles
 SCF Done:  E(RwB97XD) =  -900.212446780     A.U. after   13 cycles
 SCF Done:  E(RwB97XD) =  -900.212747549     A.U. after   11 cycles
 SCF Done:  E(RwB97XD) =  -900.212917712     A.U. after   11 cycles
 SCF Done:  E(RwB97XD) =  -900.213037795     A.U. after   11 cycles
 SCF Done:  E(RwB97XD) =  -900.213059674     A.U. after   11 cycles
 SCF Done:  E(RwB97XD) =  -900.213071861     A.U. after   11 cycles
 SCF Done:  E(RwB97XD) =  -900.213076957     A.U. after   10 cycles
 SCF Done:  E(RwB97XD) =  -900.213079406     A.U. after    9 cycles
 SCF Done:  E(RwB97XD) =  -900.213085319     A.U. after   10 cycles
 SCF Done:  E(RwB97XD) =  -900.213087906     A.U. after   10 cycles
 SCF Done:  E(RwB97XD) =  -900.213089217     A.U. after    9 cycles
 SCF Done:  E(RwB97XD) =  -900.213089280     A.U. after    7 cycles
 SCF Done:  E(RwB97XD) =  -900.213089191     A.U. after    7 cycles
 Optimization completed.
    -- Stationary point found.
 Normal termination of Gaussian 16 at Wed Mar 27 16:21:48 2024.

 ----------------------------------------------------------------------
 #N Geom=AllCheck Guess=TCheck SCRF=Check GenChk RwB97XD/def2TZVPP Freq
 ----------------------------------------------------------------------

 Structure from the checkpoint file:  "PbiLmL_to_QbiLmL_collapseIRC_Reverse_ReactantOpt.chk"
 --------------------------------------------------------
 Convert TS for PbiL to QbiL collapse to PbiLmL to QbiLmL
 --------------------------------------------------------
 Charge = -1 Multiplicity = 1

                         Standard orientation:
 ---------------------------------------------------------------------
 Center     Atomic      Atomic             Coordinates (Angstroms)
 Number     Number       Type             X           Y           Z
 ---------------------------------------------------------------------
      1         14           0       -0.714356   -0.583591   -0.146198
      2          8           0        0.720554   -1.148712    0.572416
      3          8           0       -1.464973   -2.117602    0.150680
      4          1           0       -0.997203   -2.568027    0.847579
      5          8           0       -1.871067    0.240900    0.803086
      6          8           0       -0.984885   -0.733647   -1.801749
      7          1           0       -1.394601   -1.587012   -1.933705
      8          8           0        0.049161    1.019861   -0.449366
      9          6           0       -0.856210    2.053544   -0.291725
     10          1           0       -0.341840    3.001005   -0.087379
     11          1           0       -1.468622    2.187776   -1.198048
     12          6           0       -1.742003    1.626132    0.879730
     13          1           0       -1.267899    1.912748    1.831213
     14          1           0       -2.729368    2.102964    0.841112
     15          6           0        1.798699   -0.443125    1.104007
     16          1           0        1.484327    0.510398    1.545174
     17          1           0        2.223230   -1.055591    1.911921
     18          6           0        2.921066   -0.170855    0.109037
     19          1           0        3.833205    0.052693    0.679027
     20          1           0        3.101940   -1.101178   -0.449599
     21          8           0        2.689655    0.900294   -0.766924
     22          1           0        1.720948    1.031582   -0.811951
 ---------------------------------------------------------------------

 SCF Done:  E(RwB97XD) =  -900.213089191     A.U. after    1 cycles

 The electronic state is 1-A.
 Alpha  occ. eigenvalues --  -66.13188 -19.07923 -19.07154 -19.06852 -19.05815
 Alpha  occ. eigenvalues --  -19.05574 -19.03847 -10.18447 -10.18225 -10.18043
 Alpha  occ. eigenvalues --  -10.17767  -5.24237  -3.58863  -3.58773  -3.58672
 Alpha  occ. eigenvalues --   -0.98201  -0.96284  -0.94157  -0.91682  -0.91275
 Alpha  occ. eigenvalues --   -0.88121  -0.68401  -0.66744  -0.56887  -0.54916
 Alpha  occ. eigenvalues --   -0.47612  -0.44595  -0.44232  -0.42511  -0.41428
 Alpha  occ. eigenvalues --   -0.41001  -0.40137  -0.37738  -0.35718  -0.35246
 Alpha  occ. eigenvalues --   -0.33838  -0.33252  -0.29837  -0.27111  -0.25370
 Alpha  occ. eigenvalues --   -0.24989  -0.24340  -0.23137  -0.21812  -0.21315
 Alpha  occ. eigenvalues --   -0.20276  -0.19879  -0.19531  -0.17830
 Alpha virt. eigenvalues --    0.24146   0.25356   0.26694   0.27439   0.29082
 Alpha virt. eigenvalues --    0.29882   0.30462   0.31577   0.31732   0.32666
 Alpha virt. eigenvalues --    0.33632   0.34795   0.35685   0.36828   0.38106

 Mulliken charges:
               1
     1  Si   0.826259
     2  O   -0.434221
     3  O   -0.571243
     4  H    0.143500
     5  O   -0.401122
     6  O   -0.437290
     7  H    0.156513
     8  O   -0.524106
     9  C    0.057197
    10  H    0.023091
    11  H    0.028764
    12  C    0.065100
    13  H    0.018297
    14  H    0.020183
    15  C    0.042415
    16  H    0.037951
    17  H    0.030146
    18  C    0.100065
    19  H    0.014345
    20  H    0.025406
    21  O   -0.456651
    22  H    0.235399
 Sum of Mulliken charges =  -1.00000

 Dipole moment (field-independent basis, Debye):
    X=              0.6895    Y=              1.1530    Z=              2.4579  Tot=              2.8011
 Quadrupole moment (field-independent basis, Debye-Ang):
   XX=            -95.3259   YY=            -80.7786   ZZ=            -81.0189
   XY=             -8.2713   XZ=              5.8698   YZ=              1.7627

  Exact polarizability:     102.669      -4.059      98.487       2.859       0.136      87.741
 Approx polarizability:      99.900      -1.440     102.321       3.040      -0.265      95.489

                      1                      2                      3
                      A                      A                      A
 Frequencies --     24.6161                63.1543                81.5252
 Red. masses --      4.9693                 3.8367                 3.3203
 Frc consts  --      0.0018                 0.0090                 0.0130
 IR Inten    --      2.0463                10.8533                 0.8816

                      4                      5                      6
                      A                      A                      A
 Frequencies --    138.7613               169.2638               182.3436
 Red. masses --      2.7646                 4.4541                 4.7347
 Frc consts  --      0.0314                 0.0752                 0.0928
 IR Inten    --      6.8800                 3.2791                 8.8915

                      7                      8                      9
                      A                      A                      A
 Frequencies --    208.7052               243.8485               253.0361
 Red. masses --      1.5327                 3.9926                 2.1861
 Frc consts  --      0.0393                 0.1399                 0.0825
 IR Inten    --     23.4560                 4.9089                11.7685

                     10                     11                     12
                      A                      A                      A
 Frequencies --    338.3916               363.1781               402.9712
 Red. masses --      2.9922                 6.3460                 4.0920
 Frc consts  --      0.2019                 0.4932                 0.3915
 IR Inten    --     15.6665                 3.7492                11.6217

                     13                     14                     15
                      A                      A                      A
 Frequencies --    410.1299               421.3071               465.8475
 Red. masses --      4.2251                 7.2148                 7.4483
 Frc consts  --      0.4187                 0.7545                 0.9523
 IR Inten    --     15.1049                13.9542                24.5899

                     16                     17                     18
                      A                      A                      A
 Frequencies --    507.9655               548.3152               560.2360
 Red. masses --      3.7741                 2.4808                 1.2869
 Frc consts  --      0.5738                 0.4394                 0.2380
 IR Inten    --     14.2033                 8.4529                63.6251

                     19                     20                     21
                      A                      A                      A
 Frequencies --    647.0996               654.7453               712.3242
 Red. masses --      2.5035                 6.9474                 4.2244
 Frc consts  --      0.6176                 1.7548                 1.2629
 IR Inten    --      6.7969                51.1866               239.2202

                     22                     23                     24
                      A                      A                      A
 Frequencies --    730.3446               751.3568               836.0989
 Red. masses --      1.6415                 2.9478                 7.7807
 Frc consts  --      0.5159                 0.9805                 3.2047
 IR Inten    --     79.7304               239.7784               238.2855

                     25                     26                     27
                      A                      A                      A
 Frequencies --    886.4665               920.1073               940.8162
 Red. masses --      2.6657                 1.7659                 2.3823
 Frc consts  --      1.2342                 0.8808                 1.2424
 IR Inten    --     67.4716                17.5883                10.2625

                     28                     29                     30
                      A                      A                      A
 Frequencies --    949.5514               962.7469              1037.5872
 Red. masses --      1.9163                 1.3511                 1.2237
 Frc consts  --      1.0180                 0.7378                 0.7762
 IR Inten    --     10.2333               287.9428               189.5314

                     31                     32                     33
                      A                      A                      A
 Frequencies --   1121.1521              1148.7793              1153.2986
 Red. masses --      2.2683                 2.9004                 3.3595
 Frc consts  --      1.6799                 2.2552                 2.6327
 IR Inten    --      7.8329                58.3903               108.8573

                     34                     35                     36
                      A                      A                      A
 Frequencies --   1167.1281              1182.7186              1196.0233
 Red. masses --      4.2628                 3.4248                 4.1019
 Frc consts  --      3.4213                 2.8226                 3.4571
 IR Inten    --     13.2073               228.1811               161.2750

                     37                     38                     39
                      A                      A                      A
 Frequencies --   1263.6257              1263.7431              1276.7248
 Red. masses --      1.1711                 1.1730                 1.1009
 Frc consts  --      1.1017                 1.1037                 1.0573
 IR Inten    --      3.6455                16.9507                 0.1435

                     40                     41                     42
                      A                      A                      A
 Frequencies --   1326.2927              1380.0626              1395.0569
 Red. masses --      1.1522                 1.3116                 1.2711
 Frc consts  --      1.1942                 1.4718                 1.4575
 IR Inten    --     14.9637                16.9740                11.3437

                     43                     44                     45
                      A                      A                      A
 Frequencies --   1396.6797              1414.6229              1491.4776
 Red. masses --      1.3244                 1.3127                 1.0842
 Frc consts  --      1.5222                 1.5478                 1.4210
 IR Inten    --      5.8536                20.1946                 2.5657

                     46                     47                     48
                      A                      A                      A
 Frequencies --   1505.3993              1512.3114              1519.7377
 Red. masses --      1.0864                 1.0876                 1.0951
 Frc consts  --      1.4506                 1.4656                 1.4902
 IR Inten    --      3.4935                 2.2989                 1.6835

                     49                     50                     51
                      A                      A                      A
 Frequencies --   1547.2267              2943.4475              2951.8442
 Red. masses --      1.1566                 1.0734                 1.0630
 Frc consts  --      1.6313                 5.4792                 5.4571
 IR Inten    --     51.4670                97.8228               115.4217

                     52                     53                     54
                      A                      A                      A
 Frequencies --   2963.6968              2978.5242              3003.6882
 Red. masses --      1.0596                 1.0688                 1.0965
 Frc consts  --      5.4834                 5.5866                 5.8285
 IR Inten    --     62.7210               119.4178               178.0489

                     55                     56                     57
                      A                      A                      A
 Frequencies --   3008.3141              3015.1920              3030.8150
 Red. masses --      1.0839                 1.1013                 1.0964
 Frc consts  --      5.7796                 5.8994                 5.9340
 IR Inten    --    167.1264               119.7040                77.4787

                     58                     59                     60
                      A                      A                      A
 Frequencies --   3483.8718              3941.7672              3987.3463
 Red. masses --      1.0687                 1.0646                 1.0654
 Frc consts  --      7.6425                 9.7456                 9.9800
 IR Inten    --    871.4568                26.1448                16.5947

 - Thermochemistry -
 -------------------
 Temperature   298.150 Kelvin.  Pressure   1.00000 Atm.
 Atom     1 has atomic number 14 and mass  27.97693

 Molecular mass:   183.03249 amu.
 Principal axes and moments of inertia in atomic units:
                           1         2         3
     Eigenvalues --  1372.461052155.585962646.25301
           X            0.99874  -0.04795   0.01481
           Y            0.04778   0.99879   0.01197
           Z           -0.01537  -0.01125   0.99982
 This molecule is an asymmetric top.
 Rotational symmetry number  1.
 Warning -- assumption of classical behavior for rotation
           may cause significant error
 Rotational temperatures (Kelvin)      0.06311     0.04018     0.03273
 Rotational constants (GHZ):           1.31497     0.83724     0.68200
 Zero-point vibrational energy     454481.7 (Joules/Mol)
                                  108.62374 (Kcal/Mol)
 Warning -- explicit consideration of  18 degrees of freedom as
           vibrations may cause significant error
 Vibrational temperatures:     35.42    90.86   117.30   199.65   243.53
          (Kelvin)            262.35   300.28   350.84   364.06   486.87
                              522.53   579.79   590.09   606.17   670.25
                              730.85   788.90   806.05   931.03   942.03
                             1024.88  1050.80  1081.03  1202.96  1275.43
                             1323.83  1353.62  1366.19  1385.18  1492.86
                             1613.09  1652.84  1659.34  1679.24  1701.67
                             1720.81  1818.08  1818.24  1836.92  1908.24
                             1985.60  2007.18  2009.51  2035.33  2145.90
                             2165.93  2175.88  2186.56  2226.11  4234.96
                             4247.05  4264.10  4285.43  4321.64  4328.29
                             4338.19  4360.67  5012.51  5671.32  5736.90

 Zero-point correction=                           0.173103 (Hartree/Particle)
 Thermal correction to Energy=                    0.185380
 Thermal correction to Enthalpy=                  0.186324
 Thermal correction to Gibbs Free Energy=         0.134050
 Sum of electronic and zero-point Energies=           -900.039986
 Sum of electronic and thermal Energies=              -900.027709
 Sum of electronic and thermal Enthalpies=            -900.026765
 Sum of electronic and thermal Free Energies=         -900.079040

                     E (Thermal)             CV                S
                      KCal/Mol        Cal/Mol-Kelvin    Cal/Mol-Kelvin
 Total                  116.328             45.395            110.022
 Electronic               0.000              0.000              0.000
 Translational            0.889              2.981             41.520
 Rotational               0.889              2.981             30.438
 Vibrational            114.550             39.433             38.064
 Vibration     1          0.593              1.985              6.222
 Vibration     2          0.597              1.972              4.356
 Vibration     3          0.600              1.962              3.854
 Vibration     4          0.614              1.915              2.821
 Vibration     5          0.625              1.880              2.444
 Vibration     6          0.630              1.864              2.304
 Vibration     7          0.642              1.827              2.055
 Vibration     8          0.659              1.773              1.775
 Vibration     9          0.664              1.758              1.709
 Vibration    10          0.719              1.599              1.220
 Vibration    11          0.737              1.548              1.108
 Vibration    12          0.768              1.464              0.952
 Vibration    13          0.774              1.448              0.926
 Vibration    14          0.784              1.424              0.888
 Vibration    15          0.823              1.326              0.749
 Vibration    16          0.863              1.232              0.639
 Vibration    17          0.904              1.143              0.548
 Vibration    18          0.916              1.117              0.523

 Optimization completed.
    -- Stationary point found.
 Normal termination of Gaussian 16 at Wed Mar 27 17:45:56 2024.
