 Gaussian 16, Revision C.01,
 Gaussian 16:  ES64L-G16RevC.01  3-Jul-2019

 ---------------------------------------------
 # opt freq wb97xd/def2tzvpp geom=connectivity
 ---------------------------------------------

 irc for proton transfer with potential SN1 like transition state in L
 attack on QbiL
 ----------------------------------------------------------------------
 Symbolic Z-matrix:
 Charge =  0 Multiplicity = 1

 SCF Done:  E(RwB97XD) =  -900.751399578     A.U. after   13 cycles
 SCF Done:  E(RwB97XD) =  -900.748347509     A.U. after   14 cycles
 SCF Done:  E(RwB97XD) =  -900.749950502     A.U. after   12 cycles
 SCF Done:  E(RwB97XD) =  -900.751887341     A.U. after   10 cycles
 SCF Done:  E(RwB97XD) =  -900.752741145     A.U. after   13 cycles
 SCF Done:  E(RwB97XD) =  -900.753313857     A.U. after   11 cycles
 SCF Done:  E(RwB97XD) =  -900.753837136     A.U. after   11 cycles
 SCF Done:  E(RwB97XD) =  -900.754109269     A.U. after   11 cycles
 SCF Done:  E(RwB97XD) =  -900.754332525     A.U. after   11 cycles
 SCF Done:  E(RwB97XD) =  -900.754536033     A.U. after   12 cycles
 SCF Done:  E(RwB97XD) =  -900.755563148     A.U. after    9 cycles
 SCF Done:  E(RwB97XD) =  -900.755570690     A.U. after    9 cycles
 SCF Done:  E(RwB97XD) =  -900.755571897     A.U. after    9 cycles
 SCF Done:  E(RwB97XD) =  -900.755574294     A.U. after    9 cycles
 SCF Done:  E(RwB97XD) =  -900.755574818     A.U. after    8 cycles
 SCF Done:  E(RwB97XD) =  -900.755575271     A.U. after    7 cycles
 SCF Done:  E(RwB97XD) =  -900.755575527     A.U. after    8 cycles
 SCF Done:  E(RwB97XD) =  -900.755575641     A.U. after    6 cycles
 SCF Done:  E(RwB97XD) =  -900.755575710     A.U. after    7 cycles
 Optimization completed.
    -- Stationary point found.
 Normal termination of Gaussian 16 at Sun Mar 31 04:23:53 2024.

 ----------------------------------------------------------------------
 #N Geom=AllCheck Guess=TCheck SCRF=Check GenChk RwB97XD/def2TZVPP Freq
 ----------------------------------------------------------------------

 ----------------------------------------------------------------------
 irc for proton transfer with potential SN1 like transition state in L
 attack on QbiL
 ----------------------------------------------------------------------
 Charge =  0 Multiplicity = 1

                         Standard orientation:
 ---------------------------------------------------------------------
 Center     Atomic      Atomic             Coordinates (Angstroms)
 Number     Number       Type             X           Y           Z
 ---------------------------------------------------------------------
      1         14           0       -1.718463   -0.291509    0.065550
      2          8           0       -1.652867    0.882658   -1.076752
      3          8           0       -3.239558   -0.613321    0.530748
      4          1           0       -3.834187    0.118869    0.674445
      5          8           0       -1.097917   -1.737101   -0.376825
      6          1           0       -1.705529   -2.433429   -0.614879
      7          8           0       -0.702018    0.383742    1.154353
      8          6           0        3.448289   -0.208166    0.370913
      9          1           0        3.872044   -0.081109    1.367087
     10          1           0        4.220509   -0.639855   -0.276454
     11          6           0        2.259830   -1.142006    0.430897
     12          1           0        1.524291   -0.763942    1.146726
     13          1           0        2.591680   -2.133394    0.761222
     14          8           0        3.076974    1.073392   -0.093268
     15          1           0        2.609578    0.925835   -0.917839
     16          8           0        1.702811   -1.196096   -0.869392
     17          1           0        0.809612   -1.548229   -0.809254
     18          6           0       -0.251465    1.656946    0.691315
     19          1           0        0.811212    1.760586    0.907003
     20          1           0       -0.807951    2.438815    1.213820
     21          6           0       -0.515041    1.704530   -0.822725
     22          1           0       -0.721445    2.716398   -1.168075
     23          1           0        0.339592    1.306576   -1.374809
 ---------------------------------------------------------------------

 SCF Done:  E(RwB97XD) =  -900.755575710     A.U. after    1 cycles

 The electronic state is 1-A.
 Alpha  occ. eigenvalues --  -66.31778 -19.27487 -19.27098 -19.25758 -19.25726
 Alpha  occ. eigenvalues --  -19.24095 -19.23955 -10.34325 -10.34009 -10.31913
 Alpha  occ. eigenvalues --  -10.31716  -5.43638  -3.78184  -3.78130  -3.78045
 Alpha  occ. eigenvalues --   -1.16753  -1.13417  -1.13090  -1.11991  -1.10509
 Alpha  occ. eigenvalues --   -1.10057  -0.84181  -0.83000  -0.72249  -0.70526
 Alpha  occ. eigenvalues --   -0.68254  -0.64168  -0.61470  -0.59963  -0.59615
 Alpha  occ. eigenvalues --   -0.57992  -0.57206  -0.54583  -0.52985  -0.51312
 Alpha  occ. eigenvalues --   -0.50921  -0.49139  -0.48541  -0.47843  -0.45805
 Alpha  occ. eigenvalues --   -0.44494  -0.43497  -0.42921  -0.41576  -0.41280
 Alpha  occ. eigenvalues --   -0.40315  -0.36962  -0.35776  -0.35319
 Alpha virt. eigenvalues --    0.07753   0.11397   0.11747   0.13888   0.14231
 Alpha virt. eigenvalues --    0.15120   0.16730   0.17612   0.18437   0.18541
 Alpha virt. eigenvalues --    0.19669   0.20313   0.21751   0.22298   0.23028

 Mulliken charges:
               1
     1  Si   0.795807
     2  O   -0.387248
     3  O   -0.379027
     4  H    0.182488
     5  O   -0.388699
     6  H    0.181521
     7  O   -0.392944
     8  C    0.075998
     9  H    0.062828
    10  H    0.074452
    11  C   -0.013766
    12  H    0.089065
    13  H    0.082295
    14  O   -0.377605
    15  H    0.192452
    16  O   -0.415215
    17  H    0.222314
    18  C    0.037338
    19  H    0.084915
    20  H    0.081609
    21  C    0.040908
    22  H    0.079016
    23  H    0.071498
 Sum of Mulliken charges =  -0.00000

 Dipole moment (field-independent basis, Debye):
    X=             -2.4207    Y=             -0.0721    Z=              0.3958  Tot=              2.4539
 Quadrupole moment (field-independent basis, Debye-Ang):
   XX=            -69.4527   YY=            -65.7581   ZZ=            -74.5280
   XY=             -3.8435   XZ=              0.8434   YZ=              0.7360

  Exact polarizability:      98.778       1.497      90.471       0.976      -0.759      78.048
 Approx polarizability:      95.384       1.787      95.152       1.170      -0.538      89.457

                      1                      2                      3
                      A                      A                      A
 Frequencies --     46.2444                50.8490                59.1885
 Red. masses --      5.6329                 5.4537                 5.8329
 Frc consts  --      0.0071                 0.0083                 0.0120
 IR Inten    --      2.8256                 0.6639                 0.2167

                      4                      5                      6
                      A                      A                      A
 Frequencies --     81.8822                95.2355               113.6787
 Red. masses --      6.4769                 3.0420                 4.0340
 Frc consts  --      0.0256                 0.0163                 0.0307
 IR Inten    --      2.9206                 2.4351                 4.3042

                      7                      8                      9
                      A                      A                      A
 Frequencies --    138.0259               161.7792               187.5878
 Red. masses --      4.0227                 2.4105                 3.0197
 Frc consts  --      0.0452                 0.0372                 0.0626
 IR Inten    --      3.1772                34.5496                27.5822

                     10                     11                     12
                      A                      A                      A
 Frequencies --    205.2363               256.7093               302.7163
 Red. masses --      1.8038                 1.4119                 1.8397
 Frc consts  --      0.0448                 0.0548                 0.0993
 IR Inten    --     22.7918                38.4514                25.4480

                     13                     14                     15
                      A                      A                      A
 Frequencies --    326.3191               334.7129               346.0454
 Red. masses --      2.2540                 2.6528                 4.0299
 Frc consts  --      0.1414                 0.1751                 0.2843
 IR Inten    --     36.0909                 4.8199                60.5621

                     16                     17                     18
                      A                      A                      A
 Frequencies --    378.9284               442.5371               499.5772
 Red. masses --      6.6534                 1.2558                 7.2483
 Frc consts  --      0.5629                 0.1449                 1.0658
 IR Inten    --     92.9770               164.6414                15.0688

                     19                     20                     21
                      A                      A                      A
 Frequencies --    542.8905               632.1655               634.0750
 Red. masses --      2.2972                 2.9913                 1.1295
 Frc consts  --      0.3989                 0.7043                 0.2676
 IR Inten    --     19.9821                 5.8590                77.1707

                     22                     23                     24
                      A                      A                      A
 Frequencies --    761.8429               823.3414               847.8627
 Red. masses --      9.6635                 1.4242                 3.3757
 Frc consts  --      3.3046                 0.5688                 1.4298
 IR Inten    --     16.3344               180.3074               155.4051

                     25                     26                     27
                      A                      A                      A
 Frequencies --    876.0483               890.9464               895.4513
 Red. masses --      1.5119                 1.8883                 1.8344
 Frc consts  --      0.6837                 0.8831                 0.8666
 IR Inten    --    114.7137                10.1532                99.6806

                     28                     29                     30
                      A                      A                      A
 Frequencies --    909.6205               936.9520               971.1137
 Red. masses --      2.1683                 2.8308                 4.4613
 Frc consts  --      1.0570                 1.4642                 2.4789
 IR Inten    --     29.2279                 9.0993               171.8490

                     31                     32                     33
                      A                      A                      A
 Frequencies --   1000.2276              1080.1741              1101.2937
 Red. masses --      4.7027                 2.5354                 6.3767
 Frc consts  --      2.7720                 1.7429                 4.5567
 IR Inten    --    186.7874                46.6001                 5.7285

                     34                     35                     36
                      A                      A                      A
 Frequencies --   1116.6029              1118.6703              1147.3756
 Red. masses --      3.0759                 6.6114                 2.6546
 Frc consts  --      2.2595                 4.8747                 2.0590
 IR Inten    --     94.6481               318.6882                48.6587

                     37                     38                     39
                      A                      A                      A
 Frequencies --   1160.2988              1212.6691              1271.7937
 Red. masses --      1.7521                 1.1159                 1.1310
 Frc consts  --      1.3898                 0.9668                 1.0778
 IR Inten    --     12.9110                18.6060                11.0837

                     40                     41                     42
                      A                      A                      A
 Frequencies --   1280.8375              1283.4046              1338.8339
 Red. masses --      1.1015                 1.1205                 1.1766
 Frc consts  --      1.0646                 1.0874                 1.2426
 IR Inten    --      5.9934                 1.6977                35.2841

                     43                     44                     45
                      A                      A                      A
 Frequencies --   1391.3548              1396.1702              1409.0018
 Red. masses --      1.2037                 1.2584                 1.2848
 Frc consts  --      1.3729                 1.4452                 1.5029
 IR Inten    --      6.0175                 2.0484                 2.8515

                     46                     47                     48
                      A                      A                      A
 Frequencies --   1431.8210              1475.2933              1508.3333
 Red. masses --      1.2419                 1.5015                 1.0897
 Frc consts  --      1.5000                 1.9255                 1.4606
 IR Inten    --     35.8395                 7.3245                 2.7449

                     49                     50                     51
                      A                      A                      A
 Frequencies --   1518.6662              1523.6520              1533.0123
 Red. masses --      1.0847                 1.0883                 1.0833
 Frc consts  --      1.4740                 1.4885                 1.5000
 IR Inten    --      4.0972                 5.5689                 2.8164

                     52                     53                     54
                      A                      A                      A
 Frequencies --   3014.1239              3023.9632              3051.8284
 Red. masses --      1.0643                 1.0681                 1.0666
 Frc consts  --      5.6967                 5.7547                 5.8527
 IR Inten    --     36.2121                80.2933                46.3938

                     55                     56                     57
                      A                      A                      A
 Frequencies --   3061.0154              3079.1221              3117.5563
 Red. masses --      1.0620                 1.0997                 1.0964
 Frc consts  --      5.8629                 6.1428                 6.2784
 IR Inten    --     42.7748                28.1289                29.9467

                     58                     59                     60
                      A                      A                      A
 Frequencies --   3124.1453              3136.2937              3815.4841
 Red. masses --      1.1000                 1.1061                 1.0671
 Frc consts  --      6.3258                 6.4103                 9.1526
 IR Inten    --     20.3775                14.7070               334.8918

                     61                     62                     63
                      A                      A                      A
 Frequencies --   3877.8846              3978.5246              3982.3859
 Red. masses --      1.0652                 1.0663                 1.0667
 Frc consts  --      9.4379                 9.9447                 9.9673
 IR Inten    --     33.7303               124.8615               108.6083

 - Thermochemistry -
 -------------------
 Temperature   298.150 Kelvin.  Pressure   1.00000 Atm.
 Atom     1 has atomic number 14 and mass  27.97693

 Molecular mass:   184.04032 amu.
 Principal axes and moments of inertia in atomic units:
                           1         2         3
     Eigenvalues --  1136.732353158.891543663.49821
           X            0.99992  -0.01187   0.00486
           Y            0.01190   0.99991  -0.00623
           Z           -0.00479   0.00629   0.99997
 This molecule is an asymmetric top.
 Rotational symmetry number  1.
 Warning -- assumption of classical behavior for rotation
           may cause significant error
 Rotational temperatures (Kelvin)      0.07620     0.02742     0.02364
 Rotational constants (GHZ):           1.58766     0.57132     0.49263
 Zero-point vibrational energy     486350.0 (Joules/Mol)
                                  116.24045 (Kcal/Mol)
 Warning -- explicit consideration of  19 degrees of freedom as
           vibrations may cause significant error
 Vibrational temperatures:     66.54    73.16    85.16   117.81   137.02
          (Kelvin)            163.56   198.59   232.76   269.90   295.29
                              369.35   435.54   469.50   481.58   497.88
                              545.19   636.71   718.78   781.10   909.55
                              912.29  1096.12  1184.60  1219.89  1260.44
                             1281.87  1288.35  1308.74  1348.06  1397.22
                             1439.10  1554.13  1584.52  1606.54  1609.52
                             1650.82  1669.41  1744.76  1829.83  1842.84
                             1846.53  1926.28  2001.85  2008.78  2027.24
                             2060.07  2122.62  2170.16  2185.02  2192.20
                             2205.66  4336.65  4350.81  4390.90  4404.12
                             4430.17  4485.47  4494.95  4512.43  5489.63
                             5579.41  5724.21  5729.77

 Zero-point correction=                           0.185241 (Hartree/Particle)
 Thermal correction to Energy=                    0.199367
 Thermal correction to Enthalpy=                  0.200311
 Thermal correction to Gibbs Free Energy=         0.143388
 Sum of electronic and zero-point Energies=           -900.570335
 Sum of electronic and thermal Energies=              -900.556209
 Sum of electronic and thermal Enthalpies=            -900.555265
 Sum of electronic and thermal Free Energies=         -900.612188

                     E (Thermal)             CV                S
                      KCal/Mol        Cal/Mol-Kelvin    Cal/Mol-Kelvin
 Total                  125.105             49.035            119.804
 Electronic               0.000              0.000              0.000
 Translational            0.889              2.981             41.536
 Rotational               0.889              2.981             30.954
 Vibrational            123.327             43.073             47.314
 Vibration     1          0.595              1.979              4.972
 Vibration     2          0.595              1.977              4.784
 Vibration     3          0.597              1.974              4.484
 Vibration     4          0.600              1.962              3.845
 Vibration     5          0.603              1.953              3.550
 Vibration     6          0.607              1.938              3.205
 Vibration     7          0.614              1.915              2.831
 Vibration     8          0.622              1.889              2.529
 Vibration     9          0.632              1.857              2.252
 Vibration    10          0.640              1.832              2.086
 Vibration    11          0.666              1.751              1.684
 Vibration    12          0.694              1.669              1.402
 Vibration    13          0.710              1.623              1.278
 Vibration    14          0.716              1.606              1.237
 Vibration    15          0.724              1.583              1.184
 Vibration    16          0.749              1.515              1.043
 Vibration    17          0.802              1.377              0.819
 Vibration    18          0.855              1.251              0.659
 Vibration    19          0.898              1.155              0.559

                           ! Non-Optimized Parameters !
 Normal termination of Gaussian 16 at Sun Mar 31 05:52:14 2024.
