 Gaussian 16, Revision C.01,
 Gaussian 16:  ES64L-G16RevC.01  3-Jul-2019

 ---------------------------------------------
 # opt freq wb97xd/def2tzvpp geom=connectivity
 ---------------------------------------------

 -----------------------------
 IRC for PbiL collapse to QbiL
 -----------------------------
 Symbolic Z-matrix:
 Charge = -1 Multiplicity = 1

 SCF Done:  E(RwB97XD) =  -746.356944493     A.U. after   14 cycles
 SCF Done:  E(RwB97XD) =  -746.357207954     A.U. after   11 cycles
 SCF Done:  E(RwB97XD) =  -746.357646840     A.U. after   12 cycles
 SCF Done:  E(RwB97XD) =  -746.357743364     A.U. after   11 cycles
 SCF Done:  E(RwB97XD) =  -746.357788790     A.U. after   10 cycles
 SCF Done:  E(RwB97XD) =  -746.357800080     A.U. after    9 cycles
 SCF Done:  E(RwB97XD) =  -746.357804756     A.U. after    8 cycles
 SCF Done:  E(RwB97XD) =  -746.357806583     A.U. after    8 cycles
 SCF Done:  E(RwB97XD) =  -746.357807255     A.U. after    8 cycles
 SCF Done:  E(RwB97XD) =  -746.357809143     A.U. after    9 cycles
 SCF Done:  E(RwB97XD) =  -746.357813041     A.U. after   10 cycles
 SCF Done:  E(RwB97XD) =  -746.357817530     A.U. after   10 cycles
 SCF Done:  E(RwB97XD) =  -746.357819766     A.U. after    8 cycles
 SCF Done:  E(RwB97XD) =  -746.357820577     A.U. after    9 cycles
 SCF Done:  E(RwB97XD) =  -746.357820572     A.U. after    6 cycles
 Optimization completed.
    -- Stationary point found.
 Normal termination of Gaussian 16 at Sun Feb 18 17:26:08 2024.

 ----------------------------------------------------------------------
 #N Geom=AllCheck Guess=TCheck SCRF=Check GenChk RwB97XD/def2TZVPP Freq
 ----------------------------------------------------------------------

 Structure from the checkpoint file:  "IRC_PbiL_collapseTo_QbiL_Reverse_EndpointOpt.chk"
 -----------------------------
 IRC for PbiL collapse to QbiL
 -----------------------------
 Charge = -1 Multiplicity = 1

                         Standard orientation:
 ---------------------------------------------------------------------
 Center     Atomic      Atomic             Coordinates (Angstroms)
 Number     Number       Type             X           Y           Z
 ---------------------------------------------------------------------
      1         14           0       -0.555053   -0.049134   -0.006979
      2          8           0       -1.236260   -0.865308    1.321192
      3          1           0       -0.593177   -1.514109    1.601426
      4          8           0       -1.924181    1.025412   -0.062349
      5          1           0       -2.423833    0.921515    0.742425
      6          8           0        0.528937    1.265520    0.165625
      7          8           0       -0.826435   -0.573501   -1.589633
      8          1           0       -1.605096   -0.108004   -1.890265
      9          8           0        0.865369   -1.148176    0.137813
     10          6           0        2.020523   -0.501523   -0.250337
     11          1           0        2.913180   -0.987692    0.169381
     12          1           0        2.130789   -0.495167   -1.349184
     13          6           0        1.877994    0.935634    0.259918
     14          1           0        2.212118    0.994897    1.308534
     15          1           0        2.486225    1.640206   -0.323291
 ---------------------------------------------------------------------

 SCF Done:  E(RwB97XD) =  -746.357820572     A.U. after    1 cycles

 The electronic state is 1-A.
 Alpha  occ. eigenvalues --  -66.11157 -19.05154 -19.04828 -19.04200 -19.03257
 Alpha  occ. eigenvalues --  -19.02407 -10.16495 -10.16018  -5.22236  -3.56830
 Alpha  occ. eigenvalues --   -3.56793  -3.56674  -0.95798  -0.91304  -0.89688
 Alpha  occ. eigenvalues --   -0.89047  -0.86356  -0.65019  -0.53053  -0.45484
 Alpha  occ. eigenvalues --   -0.42036  -0.40310  -0.39966  -0.38447  -0.35903
 Alpha  occ. eigenvalues --   -0.33752  -0.32145  -0.26445  -0.25791  -0.24444
 Alpha  occ. eigenvalues --   -0.23478  -0.21927  -0.21345  -0.19980  -0.18679
 Alpha  occ. eigenvalues --   -0.18541  -0.15806
 Alpha virt. eigenvalues --    0.26043   0.27277   0.29066   0.30508   0.31534
 Alpha virt. eigenvalues --    0.32259   0.33797   0.35257   0.38219   0.39306
 Alpha virt. eigenvalues --    0.40215   0.41950   0.43619   0.45056   0.45902

 Mulliken charges:
               1
     1  Si   0.844537
     2  O   -0.493715
     3  H    0.154034
     4  O   -0.579841
     5  H    0.147166
     6  O   -0.408328
     7  O   -0.449989
     8  H    0.152061
     9  O   -0.555695
    10  C    0.072200
    11  H    0.008382
    12  H    0.011368
    13  C    0.084375
    14  H    0.006891
    15  H    0.006552
 Sum of Mulliken charges =  -1.00000

 Dipole moment (field-independent basis, Debye):
    X=              2.0717    Y=             -0.0047    Z=              0.8555  Tot=              2.2414
 Quadrupole moment (field-independent basis, Debye-Ang):
   XX=            -62.3638   YY=            -66.2046   ZZ=            -59.7391
   XY=              1.3042   XZ=              0.7603   YZ=             -1.6669

  Exact polarizability:      77.258       0.228      62.225      -0.567      -0.503      64.082
 Approx polarizability:      74.257      -0.674      66.409      -0.870      -1.736      68.500

                      1                      2                      3
                      A                      A                      A
 Frequencies --     75.8034               135.0863               187.2610
 Red. masses --      2.8784                 3.8586                 4.4101
 Frc consts  --      0.0097                 0.0415                 0.0911
 IR Inten    --     19.3518                 4.2613                 1.8505

                      4                      5                      6
                      A                      A                      A
 Frequencies --    215.3264               265.2455               358.9761
 Red. masses --      1.4373                 2.2038                 5.9253
 Frc consts  --      0.0393                 0.0914                 0.4499
 IR Inten    --     35.3747                10.6156                 4.1845

                      7                      8                      9
                      A                      A                      A
 Frequencies --    384.8303               391.6813               425.1474
 Red. masses --      4.2823                 4.0560                 5.3586
 Frc consts  --      0.3736                 0.3666                 0.5707
 IR Inten    --     27.2988                18.9236                22.5769

                     10                     11                     12
                      A                      A                      A
 Frequencies --    448.4177               519.4309               546.7519
 Red. masses --      7.7859                 1.9282                 1.2149
 Frc consts  --      0.9224                 0.3065                 0.2140
 IR Inten    --     13.5857                23.3890                35.0082

                     13                     14                     15
                      A                      A                      A
 Frequencies --    560.0606               638.9173               672.4271
 Red. masses --      2.0907                 2.7061                 7.6192
 Frc consts  --      0.3864                 0.6509                 2.0298
 IR Inten    --    106.3301                10.2817                63.5475

                     16                     17                     18
                      A                      A                      A
 Frequencies --    700.2625               796.0137               838.4104
 Red. masses --      8.6490                 8.3034                 6.2049
 Frc consts  --      2.4988                 3.0999                 2.5698
 IR Inten    --    218.5045               311.3602               224.0061

                     19                     20                     21
                      A                      A                      A
 Frequencies --    916.4947               933.8122               970.9062
 Red. masses --      1.7222                 2.3981                 1.3176
 Frc consts  --      0.8523                 1.2321                 0.7318
 IR Inten    --     20.3597                12.5286               177.1317

                     22                     23                     24
                      A                      A                      A
 Frequencies --   1005.5222              1049.7225              1149.6832
 Red. masses --      1.1923                 1.2876                 2.6712
 Frc consts  --      0.7103                 0.8360                 2.0803
 IR Inten    --    127.5075               367.2323                92.6123

                     25                     26                     27
                      A                      A                      A
 Frequencies --   1170.6343              1187.4051              1260.3961
 Red. masses --      3.9225                 3.3697                 1.1846
 Frc consts  --      3.1671                 2.7992                 1.1088
 IR Inten    --      3.3723               156.4304                15.7608

                     28                     29                     30
                      A                      A                      A
 Frequencies --   1261.8364              1379.3459              1392.9891
 Red. masses --      1.1737                 1.3229                 1.3205
 Frc consts  --      1.1011                 1.4830                 1.5097
 IR Inten    --      1.5954                 9.2482                 7.7400

                     31                     32                     33
                      A                      A                      A
 Frequencies --   1509.5122              1516.9074              2916.2228
 Red. masses --      1.0892                 1.0945                 1.0721
 Frc consts  --      1.4623                 1.4839                 5.3719
 IR Inten    --      0.1473                 3.2850                95.9081

                     34                     35                     36
                      A                      A                      A
 Frequencies --   2935.2036              2978.3144              2995.7908
 Red. masses --      1.0665                 1.0858                 1.0947
 Frc consts  --      5.4136                 5.6747                 5.7883
 IR Inten    --    116.2021               222.2542               152.5991

                     37                     38                     39
                      A                      A                      A
 Frequencies --   3941.1068              3942.2780              3981.2471
 Red. masses --      1.0646                 1.0647                 1.0654
 Frc consts  --      9.7423                 9.7490                 9.9495
 IR Inten    --     41.9611                 1.6533                17.2885

 - Thermochemistry -
 -------------------
 Temperature   298.150 Kelvin.  Pressure   1.00000 Atm.
 Atom     1 has atomic number 14 and mass  27.97693

 Molecular mass:   139.00628 amu.
 Principal axes and moments of inertia in atomic units:
                           1         2         3
     Eigenvalues --   655.635281160.963091237.09514
           X            0.99996   0.00839  -0.00007
           Y           -0.00840   0.99989  -0.01231
           Z           -0.00004   0.01231   0.99992
 This molecule is an asymmetric top.
 Rotational symmetry number  1.
 Warning -- assumption of classical behavior for rotation
           may cause significant error
 Rotational temperatures (Kelvin)      0.13211     0.07461     0.07001
 Rotational constants (GHZ):           2.75266     1.55452     1.45885
 Zero-point vibrational energy     290425.7 (Joules/Mol)
                                   69.41340 (Kcal/Mol)
 Warning -- explicit consideration of  13 degrees of freedom as
           vibrations may cause significant error
 Vibrational temperatures:    109.06   194.36   269.43   309.81   381.63
          (Kelvin)            516.49   553.68   563.54   611.69   645.17
                              747.35   786.65   805.80   919.26   967.47
                             1007.52  1145.29  1206.29  1318.63  1343.55
                             1396.92  1446.72  1510.32  1654.14  1684.28
                             1708.41  1813.43  1815.50  1984.57  2004.20
                             2171.85  2182.49  4195.79  4223.10  4285.13
                             4310.27  5670.37  5672.06  5728.13

 Zero-point correction=                           0.110617 (Hartree/Particle)
 Thermal correction to Energy=                    0.119453
 Thermal correction to Enthalpy=                  0.120397
 Thermal correction to Gibbs Free Energy=         0.077398
 Sum of electronic and zero-point Energies=           -746.247203
 Sum of electronic and thermal Energies=              -746.238368
 Sum of electronic and thermal Enthalpies=            -746.237424
 Sum of electronic and thermal Free Energies=         -746.280422

                     E (Thermal)             CV                S
                      KCal/Mol        Cal/Mol-Kelvin    Cal/Mol-Kelvin
 Total                   74.958             33.386             90.498
 Electronic               0.000              0.000              0.000
 Translational            0.889              2.981             40.700
 Rotational               0.889              2.981             28.334
 Vibrational             73.180             27.424             21.464
 Vibration     1          0.599              1.965              3.997
 Vibration     2          0.613              1.918              2.872
 Vibration     3          0.632              1.857              2.255
 Vibration     4          0.645              1.818              1.998
 Vibration     5          0.671              1.737              1.627
 Vibration     6          0.734              1.557              1.127
 Vibration     7          0.754              1.503              1.020
 Vibration     8          0.759              1.488              0.994
 Vibration     9          0.787              1.416              0.875
 Vibration    10          0.807              1.364              0.801
 Vibration    11          0.874              1.207              0.611
 Vibration    12          0.902              1.147              0.551
 Vibration    13          0.916              1.118              0.524

 Optimization completed.
    -- Stationary point found.
 Normal termination of Gaussian 16 at Sun Feb 18 17:53:54 2024.
