 Gaussian 16, Revision C.01,
 Gaussian 16:  ES64L-G16RevC.01  3-Jul-2019

 ---------------------------------------------
 # opt freq wb97xd/def2tzvpp geom=connectivity
 ---------------------------------------------

 Take TS opt from hydroxyl loss of HbiL2moL collapse deprotonated and r
  eprotonate free ligand hydroxyl
 ----------------------------------------------------------------------
 Symbolic Z-matrix:
 Charge = -2 Multiplicity = 1

 SCF Done:  E(RwB97XD) =  -899.437325536     A.U. after   15 cycles
 SCF Done:  E(RwB97XD) =  -899.438442536     A.U. after   14 cycles
 SCF Done:  E(RwB97XD) =  -899.442494228     A.U. after   14 cycles
 SCF Done:  E(RwB97XD) =  -899.443249284     A.U. after   15 cycles
 SCF Done:  E(RwB97XD) =  -899.451723752     A.U. after   14 cycles
 SCF Done:  E(RwB97XD) =  -899.454431781     A.U. after   14 cycles
 SCF Done:  E(RwB97XD) =  -899.452695148     A.U. after   13 cycles
 SCF Done:  E(RwB97XD) =  -899.457018219     A.U. after   14 cycles
 SCF Done:  E(RwB97XD) =  -899.458397066     A.U. after   13 cycles
 SCF Done:  E(RwB97XD) =  -899.459082282     A.U. after   13 cycles
 SCF Done:  E(RwB97XD) =  -899.460707798     A.U. after   12 cycles
 SCF Done:  E(RwB97XD) =  -899.460718680     A.U. after   11 cycles
 SCF Done:  E(RwB97XD) =  -899.460721428     A.U. after   10 cycles
 SCF Done:  E(RwB97XD) =  -899.460722767     A.U. after    9 cycles
 SCF Done:  E(RwB97XD) =  -899.460723722     A.U. after    9 cycles
 SCF Done:  E(RwB97XD) =  -899.460725226     A.U. after    9 cycles
 SCF Done:  E(RwB97XD) =  -899.460727171     A.U. after   10 cycles
 SCF Done:  E(RwB97XD) =  -899.460729085     A.U. after    9 cycles
 SCF Done:  E(RwB97XD) =  -899.460730296     A.U. after    9 cycles
 Optimization completed.
    -- Stationary point found.
 Normal termination of Gaussian 16 at Sat Mar 30 05:58:15 2024.

 ----------------------------------------------------------------------
 #N Geom=AllCheck Guess=TCheck SCRF=Check GenChk RwB97XD/def2TZVPP Freq
 ----------------------------------------------------------------------

 ----------------------------------------------------------------------
 Take TS opt from hydroxyl loss of HbiL2moL collapse deprotonated and r
  eprotonate free ligand hydroxyl
 ----------------------------------------------------------------------
 Charge = -2 Multiplicity = 1

                         Standard orientation:
 ---------------------------------------------------------------------
 Center     Atomic      Atomic             Coordinates (Angstroms)
 Number     Number       Type             X           Y           Z
 ---------------------------------------------------------------------
      1         14           0       -0.021797    0.000716   -0.001994
      2          8           0       -1.297359    1.123346   -0.595130
      3          8           0        1.288518   -1.082177    0.683333
      4          8           0        1.290689    1.080890   -0.684427
      5          8           0       -0.004558   -0.899675   -1.562921
      6          8           0       -1.294204   -1.124325    0.593580
      7          6           0       -2.520335   -0.763859    0.096576
      8          1           0       -2.719161   -1.239719   -0.887290
      9          1           0       -3.341778   -1.068464    0.779203
     10          6           0       -2.520952    0.762644   -0.091807
     11          1           0       -3.345694    1.067454   -0.770242
     12          1           0       -2.714783    1.237910    0.893308
     13          6           0        2.504767    0.755552   -0.137170
     14          1           0        3.343805    1.025728   -0.812791
     15          1           0        2.675157    1.287005    0.824122
     16          6           0        2.504698   -0.756126    0.141641
     17          1           0        2.680598   -1.288417   -0.818319
     18          1           0        3.341178   -1.024876    0.821217
     19          8           0       -0.004432    0.902181    1.558936
     20          1           0        0.373325    0.268243    2.164392
     21          1           0        0.374210   -0.266079   -2.168094
 ---------------------------------------------------------------------

 SCF Done:  E(RwB97XD) =  -899.460730296     A.U. after    1 cycles

 The electronic state is 1-A.
 Alpha  occ. eigenvalues --  -65.95730 -18.87783 -18.87762 -18.87326 -18.87312
 Alpha  occ. eigenvalues --  -18.85081 -18.85068 -10.01855 -10.01835 -10.01431
 Alpha  occ. eigenvalues --  -10.01411  -5.06211  -3.40873  -3.40779  -3.40652
 Alpha  occ. eigenvalues --   -0.79628  -0.77748  -0.73654  -0.72594  -0.69861
 Alpha  occ. eigenvalues --   -0.69485  -0.49935  -0.48589  -0.38151  -0.36523
 Alpha  occ. eigenvalues --   -0.28966  -0.26639  -0.25691  -0.25090  -0.24286
 Alpha  occ. eigenvalues --   -0.20222  -0.19783  -0.18245  -0.17971  -0.17016
 Alpha  occ. eigenvalues --   -0.15126  -0.14186  -0.09243  -0.09080  -0.06435
 Alpha  occ. eigenvalues --   -0.05578  -0.05161  -0.04319  -0.03053  -0.01882
 Alpha  occ. eigenvalues --   -0.00805   0.00623   0.01602   0.01799
 Alpha virt. eigenvalues --    0.37819   0.38452   0.41253   0.41982   0.42510
 Alpha virt. eigenvalues --    0.42666   0.42838   0.46747   0.47051   0.47605
 Alpha virt. eigenvalues --    0.48374   0.49885   0.52004   0.53599   0.54640

 Mulliken charges:
               1
     1  Si   0.836268
     2  O   -0.491842
     3  O   -0.520629
     4  O   -0.520857
     5  O   -0.582783
     6  O   -0.491346
     7  C    0.154445
     8  H   -0.048032
     9  H   -0.063583
    10  C    0.154653
    11  H   -0.063408
    12  H   -0.047957
    13  C    0.135662
    14  H   -0.059538
    15  H   -0.053595
    16  C    0.135845
    17  H   -0.053802
    18  H   -0.059821
    19  O   -0.583624
    20  H    0.112077
    21  H    0.111866
 Sum of Mulliken charges =  -2.00000

 Dipole moment (field-independent basis, Debye):
    X=              0.7216    Y=              0.0049    Z=              0.0049  Tot=              0.7216
 Quadrupole moment (field-independent basis, Debye-Ang):
   XX=           -103.2813   YY=            -99.7903   ZZ=            -90.0298
   XY=              0.0086   XZ=             -0.0103   YZ=             -1.8553

  Exact polarizability:     132.019      -0.001      93.198      -0.005       2.347      97.929
 Approx polarizability:     119.233       0.001     100.796      -0.005      -0.965     107.909

                      1                      2                      3
                      A                      A                      A
 Frequencies --     64.8523               108.0381               157.0833
 Red. masses --      3.0073                 4.0770                 2.2650
 Frc consts  --      0.0075                 0.0280                 0.0329
 IR Inten    --      7.3735                 0.0455                15.1147

                      4                      5                      6
                      A                      A                      A
 Frequencies --    165.4421               221.1967               243.0323
 Red. masses --      5.7143                 1.5834                 2.0095
 Frc consts  --      0.0922                 0.0456                 0.0699
 IR Inten    --      3.0777                 2.6706                 0.1228

                      7                      8                      9
                      A                      A                      A
 Frequencies --    285.8446               292.0817               320.3106
 Red. masses --      6.1972                 1.1132                 5.9178
 Frc consts  --      0.2983                 0.0560                 0.3577
 IR Inten    --     19.3904                10.1445                 1.8235

                     10                     11                     12
                      A                      A                      A
 Frequencies --    367.5539               379.7041               384.2418
 Red. masses --      4.9734                 7.6513                 2.1510
 Frc consts  --      0.3959                 0.6499                 0.1871
 IR Inten    --     18.8530                 0.7921                25.4937

                     13                     14                     15
                      A                      A                      A
 Frequencies --    393.4478               397.1729               448.7072
 Red. masses --      5.2851                 7.0285                10.6757
 Frc consts  --      0.4820                 0.6532                 1.2664
 IR Inten    --      0.0026                 0.8282                 1.1628

                     16                     17                     18
                      A                      A                      A
 Frequencies --    468.1057               528.8371               558.4541
 Red. masses --      8.1596                 6.5295                11.2018
 Frc consts  --      1.0534                 1.0759                 2.0583
 IR Inten    --     14.8024               105.1025                 2.0079

                     19                     20                     21
                      A                      A                      A
 Frequencies --    599.2143               615.8527               637.6176
 Red. masses --     11.9927                 2.2695                 3.7736
 Frc consts  --      2.5371                 0.5071                 0.9039
 IR Inten    --     29.7127                 5.1518               206.3381

                     22                     23                     24
                      A                      A                      A
 Frequencies --    648.7680               651.3216               899.7449
 Red. masses --      4.9115                 9.2240                 2.3613
 Frc consts  --      1.2180                 2.3055                 1.1263
 IR Inten    --    262.3263               773.6514                14.7697

                     25                     26                     27
                      A                      A                      A
 Frequencies --    904.0310               916.8146               927.0361
 Red. masses --      2.3855                 1.8278                 1.7979
 Frc consts  --      1.1487                 0.9052                 0.9104
 IR Inten    --      5.7521                 0.8449                99.6410

                     28                     29                     30
                      A                      A                      A
 Frequencies --    989.2014              1005.4151              1135.3961
 Red. masses --      1.1447                 1.2209                 2.4198
 Frc consts  --      0.6600                 0.7272                 1.8379
 IR Inten    --     79.4883               203.0247               187.4273

                     31                     32                     33
                      A                      A                      A
 Frequencies --   1140.1497              1166.7630              1182.8750
 Red. masses --      2.2096                 4.0133                 3.2053
 Frc consts  --      1.6924                 3.2189                 2.6423
 IR Inten    --     15.7008                 0.0091                10.8296

                     34                     35                     36
                      A                      A                      A
 Frequencies --   1186.1424              1204.7019              1247.9614
 Red. masses --      3.2907                 3.3583                 1.2148
 Frc consts  --      2.7278                 2.8716                 1.1147
 IR Inten    --    435.7951                 0.4951                 0.1194

                     37                     38                     39
                      A                      A                      A
 Frequencies --   1252.1083              1253.1603              1254.0041
 Red. masses --      1.2484                 1.2624                 1.2826
 Frc consts  --      1.1532                 1.1680                 1.1883
 IR Inten    --     24.5906                 1.3534                 0.5112

                     40                     41                     42
                      A                      A                      A
 Frequencies --   1371.0369              1382.1110              1383.8674
 Red. masses --      1.3213                 1.3659                 1.3067
 Frc consts  --      1.4633                 1.5373                 1.4744
 IR Inten    --      0.2845                27.4027                38.0716

                     43                     44                     45
                      A                      A                      A
 Frequencies --   1387.7767              1477.3491              1480.5881
 Red. masses --      1.3056                 1.0930                 1.0964
 Frc consts  --      1.4815                 1.4055                 1.4160
 IR Inten    --     11.3786                 0.0805                 3.6803

                     46                     47                     48
                      A                      A                      A
 Frequencies --   1482.4768              1485.5573              2810.4600
 Red. masses --      1.0967                 1.0948                 1.0929
 Frc consts  --      1.4200                 1.4236                 5.0861
 IR Inten    --      9.1764                 5.7226                 1.0245

                     49                     50                     51
                      A                      A                      A
 Frequencies --   2815.0656              2817.7253              2821.7395
 Red. masses --      1.0967                 1.0505                 1.0526
 Frc consts  --      5.1206                 4.9140                 4.9380
 IR Inten    --     11.4173                98.8484               209.1608

                     52                     53                     54
                      A                      A                      A
 Frequencies --   2846.0626              2846.5945              2852.9112
 Red. masses --      1.0633                 1.0997                 1.1041
 Frc consts  --      5.0745                 5.2500                 5.2947
 IR Inten    --   1103.7409               376.9706               580.0441

                     55                     56                     57
                      A                      A                      A
 Frequencies --   2854.4871              3943.2559              3943.4263
 Red. masses --      1.0557                 1.0650                 1.0649
 Frc consts  --      5.0683                 9.7564                 9.7571
 IR Inten    --     33.9584                 0.9645                 2.4931

 - Thermochemistry -
 -------------------
 Temperature   298.150 Kelvin.  Pressure   1.00000 Atm.
 Atom     1 has atomic number 14 and mass  27.97693

 Molecular mass:   182.02467 amu.
 Principal axes and moments of inertia in atomic units:
                           1         2         3
     Eigenvalues --   936.810032158.028482240.23233
           X            1.00000   0.00002  -0.00001
           Y           -0.00001   0.99567   0.09299
           Z            0.00002  -0.09299   0.99567
 This molecule is an asymmetric top.
 Rotational symmetry number  1.
 Warning -- assumption of classical behavior for rotation
           may cause significant error
 Rotational temperatures (Kelvin)      0.09246     0.04014     0.03866
 Rotational constants (GHZ):           1.92648     0.83629     0.80560
 Zero-point vibrational energy     410348.3 (Joules/Mol)
                                   98.07560 (Kcal/Mol)
 Warning -- explicit consideration of  20 degrees of freedom as
           vibrations may cause significant error
 Vibrational temperatures:     93.31   155.44   226.01   238.03   318.25
          (Kelvin)            349.67   411.27   420.24   460.86   528.83
                              546.31   552.84   566.08   571.44   645.59
                              673.50   760.88   803.49   862.14   886.07
                              917.39   933.43   937.11  1294.53  1300.70
                             1319.09  1333.80  1423.24  1446.57  1633.58
                             1640.42  1678.71  1701.89  1706.59  1733.30
                             1795.54  1801.50  1803.02  1804.23  1972.62
                             1988.55  1991.08  1996.70  2125.58  2130.24
                             2132.95  2137.39  4043.63  4050.25  4054.08
                             4059.85  4094.85  4095.61  4104.70  4106.97
                             5673.47  5673.71

 Zero-point correction=                           0.156293 (Hartree/Particle)
 Thermal correction to Energy=                    0.167937
 Thermal correction to Enthalpy=                  0.168881
 Thermal correction to Gibbs Free Energy=         0.119885
 Sum of electronic and zero-point Energies=           -899.304437
 Sum of electronic and thermal Energies=              -899.292794
 Sum of electronic and thermal Enthalpies=            -899.291850
 Sum of electronic and thermal Free Energies=         -899.340846

                     E (Thermal)             CV                S
                      KCal/Mol        Cal/Mol-Kelvin    Cal/Mol-Kelvin
 Total                  105.382             45.134            103.121
 Electronic               0.000              0.000              0.000
 Translational            0.889              2.981             41.503
 Rotational               0.889              2.981             29.894
 Vibrational            103.604             39.172             31.723
 Vibration     1          0.597              1.971              4.304
 Vibration     2          0.606              1.943              3.304
 Vibration     3          0.621              1.895              2.585
 Vibration     4          0.624              1.885              2.487
 Vibration     5          0.648              1.809              1.949
 Vibration     6          0.659              1.774              1.781
 Vibration     7          0.684              1.700              1.498
 Vibration     8          0.687              1.688              1.462
 Vibration     9          0.706              1.635              1.309
 Vibration    10          0.740              1.539              1.090
 Vibration    11          0.750              1.513              1.040
 Vibration    12          0.753              1.504              1.022
 Vibration    13          0.761              1.484              0.987
 Vibration    14          0.764              1.476              0.973
 Vibration    15          0.808              1.364              0.800
 Vibration    16          0.825              1.321              0.743
 Vibration    17          0.884              1.186              0.590
 Vibration    18          0.914              1.121              0.527
 Vibration    19          0.957              1.033              0.451
 Vibration    20          0.975              0.998              0.423

                           ! Non-Optimized Parameters !
 Normal termination of Gaussian 16 at Sat Mar 30 07:22:14 2024.
