 Gaussian 16, Revision C.01,
 Gaussian 16:  ES64L-G16RevC.01  3-Jul-2019

 ----------------------------------------------------------------------
 # irc=(reverse,calcfc,maxpoints=100,maxcycle=100) wb97xd/def2tzvpp geo
 m=connectivity
 ----------------------------------------------------------------------

 ----------------------------------------------------------
 IRC for deprotonated ethylene glycol attack on PL2 complex
 ----------------------------------------------------------
 Symbolic Z-matrix:
 Charge = -2 Multiplicity = 1

 SCF Done:  E(RwB97XD) =  -1053.33008246     A.U. after   16 cycles
 SCF Done:  E(RwB97XD) =  -1053.33010035     A.U. after   11 cycles

                          Input orientation:
 ---------------------------------------------------------------------
 Center     Atomic      Atomic             Coordinates (Angstroms)
 Number     Number       Type             X           Y           Z
 ---------------------------------------------------------------------
      1         14           0       -1.010057    0.386191   -0.027299
      2          8           0       -0.332052    1.482886    1.178956
      3          8           0        0.012216    1.129356   -1.230884
      4          8           0       -1.350652   -0.863138   -1.189282
      5          8           0       -1.526476   -0.679366    1.254203
      6          8           0        1.138613   -0.947957    0.410651
      7          8           0       -2.471029    1.292521   -0.245853
      8          1           0       -2.463474    1.934520    0.460671
      9          6           0       -1.994733   -1.954159   -0.646501
     10          1           0       -3.094236   -1.863845   -0.760967
     11          1           0       -1.686239   -2.883911   -1.154151
     12          6           0       -1.634902   -1.992863    0.844715
     13          1           0       -2.414735   -2.521011    1.422422
     14          1           0       -0.675456   -2.514373    0.978209
     15          6           0        0.814324    2.117406    0.737559
     16          1           0        0.920406    3.110297    1.209653
     17          1           0        1.706556    1.521016    0.974870
     18          6           0        0.675927    2.249125   -0.783865
     19          1           0        0.105533    3.171686   -1.023955
     20          1           0        1.663635    2.339796   -1.265800
     21          6           0        1.851721   -1.312529   -0.681587
     22          1           0        1.408735   -0.972841   -1.634554
     23          1           0        1.973884   -2.426886   -0.770090
     24          6           0        3.281165   -0.710587   -0.545512
     25          1           0        4.036980   -1.290084   -1.098270
     26          1           0        3.282909    0.320354   -0.937988
     27          8           0        3.584185   -0.709149    0.830733
     28          1           0        2.632204   -0.742692    1.153853
 ---------------------------------------------------------------------

 Alpha  occ. eigenvalues --  -65.99543 -18.94742 -18.91626 -18.91611 -18.91586
 Alpha  occ. eigenvalues --  -18.91126 -18.91100 -18.85497 -10.04567 -10.04469
 Alpha  occ. eigenvalues --  -10.04100 -10.03822 -10.03548 -10.01196  -5.10337
 Alpha  occ. eigenvalues --   -3.45016  -3.44858  -3.44751  -0.83772  -0.83227
 Alpha  occ. eigenvalues --   -0.81591  -0.77433  -0.76173  -0.75818  -0.72156
 Alpha  occ. eigenvalues --   -0.53658  -0.51631  -0.50820  -0.41745  -0.39430
 Alpha  occ. eigenvalues --   -0.38159  -0.33000  -0.29943  -0.29680  -0.28216
 Alpha  occ. eigenvalues --   -0.27973  -0.27753  -0.26252  -0.24870  -0.24008
 Alpha  occ. eigenvalues --   -0.23033  -0.21832  -0.20301  -0.19671  -0.18135
 Alpha  occ. eigenvalues --   -0.17134  -0.14943  -0.13945  -0.11948  -0.10445
 Alpha  occ. eigenvalues --   -0.09989  -0.09613  -0.08066  -0.07551  -0.07409
 Alpha  occ. eigenvalues --   -0.06662  -0.04760  -0.03870  -0.02385  -0.00201
 Alpha  occ. eigenvalues --    0.01372
 Alpha virt. eigenvalues --    0.35916   0.36442   0.37410   0.38901   0.39433
 Alpha virt. eigenvalues --    0.40189   0.40820   0.41207   0.42745   0.43461
 Alpha virt. eigenvalues --    0.44524   0.45730   0.46790   0.47885   0.48233

 Mulliken charges:
               1
     1  Si   0.875091
     2  O   -0.500066
     3  O   -0.443624
     4  O   -0.480258
     5  O   -0.451716
     6  O   -0.700837
     7  O   -0.510033
     8  H    0.122069
     9  C    0.112796
    10  H   -0.022234
    11  H   -0.025175
    12  C    0.092950
    13  H   -0.038000
    14  H    0.014722
    15  C    0.074166
    16  H   -0.037210
    17  H    0.027433
    18  C    0.100529
    19  H   -0.028124
    20  H   -0.015598
    21  C    0.142974
    22  H   -0.009773
    23  H   -0.081184
    24  C    0.091892
    25  H   -0.019992
    26  H   -0.002085
    27  O   -0.513808
    28  H    0.225095
 Sum of Mulliken charges =  -2.00000

 Dipole moment (field-independent basis, Debye):
    X=             -1.0899    Y=              1.1212    Z=             -0.6443  Tot=              1.6912
 Quadrupole moment (field-independent basis, Debye-Ang):
   XX=           -147.2539   YY=           -114.0716   ZZ=           -114.6769
   XY=              7.3291   XZ=             -7.1705   YZ=              2.3662

  Exact polarizability:       0.000       0.000       0.000       0.000       0.000       0.000
 Approx polarizability:     140.361       3.362     143.403      -3.633       3.029     134.270

 Normal termination of Gaussian 16 at Tue Feb 20 17:36:40 2024.
