 Gaussian 16, Revision C.01,
 Gaussian 16:  ES64L-G16RevC.01  3-Jul-2019

 ---------------------------------------------
 # opt freq wb97xd/def2tzvpp geom=connectivity
 ---------------------------------------------

 ----------------------------------------------------------
 IRC for deprotonated ethylene glycol attack on PL2 complex
 ----------------------------------------------------------
 Symbolic Z-matrix:
 Charge = -2 Multiplicity = 1

 SCF Done:  E(RwB97XD) =  -1053.33447212     A.U. after   15 cycles
 SCF Done:  E(RwB97XD) =  -1053.33495806     A.U. after   12 cycles
 SCF Done:  E(RwB97XD) =  -1053.33519650     A.U. after   12 cycles
 SCF Done:  E(RwB97XD) =  -1053.33554720     A.U. after   13 cycles
 SCF Done:  E(RwB97XD) =  -1053.33596335     A.U. after   13 cycles
 SCF Done:  E(RwB97XD) =  -1053.33625250     A.U. after   13 cycles
 SCF Done:  E(RwB97XD) =  -1053.33642745     A.U. after   12 cycles
 SCF Done:  E(RwB97XD) =  -1053.33649056     A.U. after   11 cycles
 SCF Done:  E(RwB97XD) =  -1053.33655272     A.U. after   11 cycles
 SCF Done:  E(RwB97XD) =  -1053.33660387     A.U. after   11 cycles
 SCF Done:  E(RwB97XD) =  -1053.33674753     A.U. after   11 cycles
 SCF Done:  E(RwB97XD) =  -1053.33675521     A.U. after   10 cycles
 SCF Done:  E(RwB97XD) =  -1053.33675871     A.U. after   10 cycles
 SCF Done:  E(RwB97XD) =  -1053.33676411     A.U. after   10 cycles
 SCF Done:  E(RwB97XD) =  -1053.33676643     A.U. after   10 cycles
 SCF Done:  E(RwB97XD) =  -1053.33676759     A.U. after   10 cycles
 SCF Done:  E(RwB97XD) =  -1053.33676877     A.U. after   10 cycles
 SCF Done:  E(RwB97XD) =  -1053.33676899     A.U. after    8 cycles
 SCF Done:  E(RwB97XD) =  -1053.33676903     A.U. after    7 cycles
 Optimization completed.
    -- Stationary point found.
 Normal termination of Gaussian 16 at Wed Mar 20 10:08:06 2024.

 ----------------------------------------------------------------------
 #N Geom=AllCheck Guess=TCheck SCRF=Check GenChk RwB97XD/def2TZVPP Freq
 ----------------------------------------------------------------------

 Structure from the checkpoint file:  "IRC_depEGattPL2_forward_ProductOpt.chk"
 ----------------------------------------------------------
 IRC for deprotonated ethylene glycol attack on PL2 complex
 ----------------------------------------------------------
 Charge = -2 Multiplicity = 1

                         Standard orientation:
 ---------------------------------------------------------------------
 Center     Atomic      Atomic             Coordinates (Angstroms)
 Number     Number       Type             X           Y           Z
 ---------------------------------------------------------------------
      1         14           0       -0.640902    0.390441    0.009146
      2          8           0        0.215795    1.381416    1.239953
      3          8           0        0.450761    1.032994   -1.249370
      4          8           0       -1.432182   -0.664967   -1.193829
      5          8           0       -1.662094   -0.323424    1.299696
      6          8           0        0.595621   -0.992679    0.363623
      7          8           0       -1.829823    1.697333   -0.277117
      8          1           0       -2.044544    2.006899    0.599664
      9          6           0       -2.542855   -1.271081   -0.658407
     10          1           0       -3.447727   -0.642634   -0.789901
     11          1           0       -2.743795   -2.245176   -1.146063
     12          6           0       -2.290036   -1.457469    0.845354
     13          1           0       -3.243050   -1.633456    1.382214
     14          1           0       -1.657629   -2.356656    0.991351
     15          6           0        1.329187    1.989070    0.708129
     16          1           0        1.521330    2.969730    1.186430
     17          1           0        2.239238    1.374488    0.858091
     18          6           0        1.092645    2.162895   -0.800165
     19          1           0        0.474448    3.067696   -0.963964
     20          1           0        2.052868    2.313461   -1.329925
     21          6           0        1.263797   -1.651479   -0.636599
     22          1           0        0.908734   -1.388790   -1.639908
     23          1           0        1.148283   -2.751207   -0.521450
     24          6           0        2.757327   -1.316761   -0.514675
     25          1           0        3.387204   -2.049064   -1.038904
     26          1           0        2.930903   -0.322541   -0.948438
     27          8           0        3.104537   -1.318220    0.858493
     28          1           0        2.245055   -1.039591    1.239333
 ---------------------------------------------------------------------

 SCF Done:  E(RwB97XD) =  -1053.33676903     A.U. after    1 cycles

 The electronic state is 1-A.
 Alpha  occ. eigenvalues --  -65.97889 -18.97063 -18.89568 -18.89458 -18.89401
 Alpha  occ. eigenvalues --  -18.89377 -18.89137 -18.87228 -10.05457 -10.03166
 Alpha  occ. eigenvalues --  -10.03085 -10.03080 -10.03055 -10.03004  -5.08404
 Alpha  occ. eigenvalues --   -3.43019  -3.42943  -3.42919  -0.85379  -0.81762
 Alpha  occ. eigenvalues --   -0.79680  -0.75987  -0.75526  -0.74385  -0.71864
 Alpha  occ. eigenvalues --   -0.53559  -0.51808  -0.50274  -0.41359  -0.40027
 Alpha  occ. eigenvalues --   -0.38205  -0.31800  -0.31393  -0.28795  -0.27804
 Alpha  occ. eigenvalues --   -0.27057  -0.26676  -0.26114  -0.25808  -0.21988
 Alpha  occ. eigenvalues --   -0.21677  -0.20303  -0.20148  -0.19275  -0.18524
 Alpha  occ. eigenvalues --   -0.17168  -0.15721  -0.14661  -0.11060  -0.09570
 Alpha  occ. eigenvalues --   -0.09312  -0.07639  -0.07476  -0.06935  -0.06254
 Alpha  occ. eigenvalues --   -0.04517  -0.03239  -0.02744  -0.01455  -0.00631
 Alpha  occ. eigenvalues --   -0.00092
 Alpha virt. eigenvalues --    0.36165   0.36695   0.37582   0.39542   0.39875
 Alpha virt. eigenvalues --    0.40372   0.41231   0.41508   0.42955   0.43448
 Alpha virt. eigenvalues --    0.45450   0.46393   0.46623   0.47095   0.48131

 Mulliken charges:
               1
     1  Si   0.861504
     2  O   -0.491218
     3  O   -0.501715
     4  O   -0.495635
     5  O   -0.490035
     6  O   -0.534346
     7  O   -0.576807
     8  H    0.116800
     9  C    0.143251
    10  H   -0.035054
    11  H   -0.045062
    12  C    0.097050
    13  H   -0.046349
    14  H   -0.027629
    15  C    0.075640
    16  H   -0.043654
    17  H   -0.023489
    18  C    0.137683
    19  H   -0.026499
    20  H   -0.035818
    21  C    0.118416
    22  H    0.008738
    23  H   -0.030682
    24  C    0.061969
    25  H   -0.006007
    26  H    0.034391
    27  O   -0.476180
    28  H    0.230739
 Sum of Mulliken charges =  -2.00000

 Dipole moment (field-independent basis, Debye):
    X=              1.3876    Y=             -1.0781    Z=             -0.4852  Tot=              1.8230
 Quadrupole moment (field-independent basis, Debye-Ang):
   XX=           -135.6967   YY=           -119.2255   ZZ=           -115.4537
   XY=              5.9176   XZ=             -6.3131   YZ=              3.9618

  Exact polarizability:     147.163       7.026     141.329      -2.965       2.339     114.549
 Approx polarizability:     141.992       3.499     141.351      -3.677       3.412     133.085

                      1                      2                      3
                      A                      A                      A
 Frequencies --     45.3321                63.8437                78.5785
 Red. masses --      5.4624                 4.0677                 1.6723
 Frc consts  --      0.0066                 0.0098                 0.0061
 IR Inten    --      0.5202                 3.6281                18.9591

                      4                      5                      6
                      A                      A                      A
 Frequencies --     95.1955               105.3189               133.3932
 Red. masses --      3.1004                 3.2793                 3.3112
 Frc consts  --      0.0166                 0.0214                 0.0347
 IR Inten    --      8.5029                 1.0820                 1.1360

                      7                      8                      9
                      A                      A                      A
 Frequencies --    166.1700               199.7463               214.0546
 Red. masses --      4.0455                 2.6947                 2.6117
 Frc consts  --      0.0658                 0.0633                 0.0705
 IR Inten    --      0.2993                 0.2651                 3.5407

                     10                     11                     12
                      A                      A                      A
 Frequencies --    228.2649               254.9076               294.7184
 Red. masses --      2.1718                 3.9097                 4.1820
 Frc consts  --      0.0667                 0.1497                 0.2140
 IR Inten    --      3.7383                 6.4842                21.1179

                     13                     14                     15
                      A                      A                      A
 Frequencies --    335.7662               360.2972               372.1710
 Red. masses --      4.5982                 3.3055                 6.1107
 Frc consts  --      0.3054                 0.2528                 0.4987
 IR Inten    --      9.9828                14.4478                 5.7633

                     16                     17                     18
                      A                      A                      A
 Frequencies --    382.9997               399.8283               404.2797
 Red. masses --      5.3893                 4.4831                 7.2494
 Frc consts  --      0.4658                 0.4223                 0.6981
 IR Inten    --      4.7003                 2.4062                 0.1375

                     19                     20                     21
                      A                      A                      A
 Frequencies --    431.2190               469.4127               560.2472
 Red. masses --      7.3599                 8.0072                 5.1450
 Frc consts  --      0.8063                 1.0395                 0.9515
 IR Inten    --     70.9510                15.8194                74.9060

                     22                     23                     24
                      A                      A                      A
 Frequencies --    568.3950               581.2904               598.0279
 Red. masses --      7.4813                 5.4676                 3.5698
 Frc consts  --      1.4241                 1.0885                 0.7522
 IR Inten    --     21.2515                61.7814               199.1360

                     25                     26                     27
                      A                      A                      A
 Frequencies --    618.4903               627.2131               663.2124
 Red. masses --     10.3968                 2.3495                 2.7474
 Frc consts  --      2.3432                 0.5446                 0.7120
 IR Inten    --    132.5665                 0.6444               115.2160

                     28                     29                     30
                      A                      A                      A
 Frequencies --    680.9949               773.6133               893.9764
 Red. masses --      9.4032                 1.1235                 2.2842
 Frc consts  --      2.5693                 0.3962                 1.0756
 IR Inten    --    578.9770               186.4227                16.6258

                     31                     32                     33
                      A                      A                      A
 Frequencies --    907.3094               909.3923               911.7865
 Red. masses --      1.9298                 2.3791                 2.3655
 Frc consts  --      0.9360                 1.1592                 1.1587
 IR Inten    --     41.7960                10.5747                 4.0011

                     34                     35                     36
                      A                      A                      A
 Frequencies --    914.3585               927.5065               990.2845
 Red. masses --      1.8062                 1.7964                 1.1933
 Frc consts  --      0.8897                 0.9105                 0.6895
 IR Inten    --      0.9649                77.0133               102.1107

                     37                     38                     39
                      A                      A                      A
 Frequencies --   1089.8069              1138.9180              1139.9519
 Red. masses --      3.3692                 2.5300                 2.5063
 Frc consts  --      2.3576                 1.9336                 1.9189
 IR Inten    --     76.7545               210.9007                38.6121

                     40                     41                     42
                      A                      A                      A
 Frequencies --   1144.3822              1166.8664              1177.3701
 Red. masses --      2.1822                 4.2432                 2.9085
 Frc consts  --      1.6838                 3.4040                 2.3755
 IR Inten    --      1.8411                 0.3945                56.1061

                     43                     44                     45
                      A                      A                      A
 Frequencies --   1184.9790              1185.9523              1206.6062
 Red. masses --      3.3903                 3.2659                 3.2146
 Frc consts  --      2.8048                 2.7064                 2.7575
 IR Inten    --     94.0620               359.7492                 1.9244

                     46                     47                     48
                      A                      A                      A
 Frequencies --   1226.9794              1253.4978              1254.8833
 Red. masses --      1.3261                 1.2071                 1.2273
 Frc consts  --      1.1763                 1.1175                 1.1387
 IR Inten    --     19.1330                 0.8489                25.9239

                     49                     50                     51
                      A                      A                      A
 Frequencies --   1256.9715              1259.8888              1273.4885
 Red. masses --      1.2665                 1.2365                 1.1795
 Frc consts  --      1.1790                 1.1564                 1.1270
 IR Inten    --      0.8389                 2.8522                 4.1897

                     52                     53                     54
                      A                      A                      A
 Frequencies --   1346.2638              1372.2518              1381.4707
 Red. masses --      1.2527                 1.3112                 1.2959
 Frc consts  --      1.3377                 1.4547                 1.4572
 IR Inten    --      6.0417                 0.3079                 8.7133

                     55                     56                     57
                      A                      A                      A
 Frequencies --   1382.9125              1387.3317              1393.0467
 Red. masses --      1.3226                 1.3037                 1.2969
 Frc consts  --      1.4903                 1.4784                 1.4828
 IR Inten    --     26.1031                26.1825                13.9017

                     58                     59                     60
                      A                      A                      A
 Frequencies --   1480.0060              1484.9667              1487.8351
 Red. masses --      1.1447                 1.0922                 1.0968
 Frc consts  --      1.4773                 1.4190                 1.4304
 IR Inten    --     69.7807                 2.6775                 2.8300

                     61                     62                     63
                      A                      A                      A
 Frequencies --   1492.2138              1499.9557              1504.6533
 Red. masses --      1.0947                 1.0783                 1.1096
 Frc consts  --      1.4362                 1.4293                 1.4800
 IR Inten    --      5.3362                40.7028                19.4806

                     64                     65                     66
                      A                      A                      A
 Frequencies --   1507.4704              2818.1524              2840.8651
 Red. masses --      1.1404                 1.0729                 1.0856
 Frc consts  --      1.5269                 5.0205                 5.1622
 IR Inten    --      8.7066               244.6084                32.0423

                     67                     68                     69
                      A                      A                      A
 Frequencies --   2850.7845              2853.9244              2862.0770
 Red. masses --      1.0554                 1.0777                 1.0691
 Frc consts  --      5.0536                 5.1717                 5.1597
 IR Inten    --     96.1803                94.0363                70.8804

                     70                     71                     72
                      A                      A                      A
 Frequencies --   2877.4308              2881.6593              2885.1234
 Red. masses --      1.0706                 1.0978                 1.0649
 Frc consts  --      5.2226                 5.3711                 5.2225
 IR Inten    --    853.0687               483.5804                74.0663

                     73                     74                     75
                      A                      A                      A
 Frequencies --   2894.2898              2969.0361              3006.0264
 Red. masses --      1.0993                 1.0549                 1.1058
 Frc consts  --      5.4256                 5.4790                 5.8875
 IR Inten    --    340.8420               148.9094               139.5904

                     76                     77                     78
                      A                      A                      A
 Frequencies --   3030.3773              3502.3932              3950.1253
 Red. masses --      1.0833                 1.0639                 1.0653
 Frc consts  --      5.8615                 7.6889                 9.7940
 IR Inten    --     58.2711               239.8851                 2.2826

 - Thermochemistry -
 -------------------
 Temperature   298.150 Kelvin.  Pressure   1.00000 Atm.
 Atom     1 has atomic number 14 and mass  27.97693

 Molecular mass:   226.05088 amu.
 Principal axes and moments of inertia in atomic units:
                           1         2         3
     Eigenvalues --  2059.438292985.212123855.32337
           X            0.99875   0.04843  -0.01267
           Y           -0.04827   0.99876   0.01250
           Z            0.01326  -0.01187   0.99984
 This molecule is an asymmetric top.
 Rotational symmetry number  1.
 Warning -- assumption of classical behavior for rotation
           may cause significant error
 Rotational temperatures (Kelvin)      0.04206     0.02901     0.02247
 Rotational constants (GHZ):           0.87633     0.60456     0.46812
 Zero-point vibrational energy     574595.0 (Joules/Mol)
                                  137.33150 (Kcal/Mol)
 Warning -- explicit consideration of  25 degrees of freedom as
           vibrations may cause significant error
 Vibrational temperatures:     65.22    91.86   113.06   136.97   151.53
          (Kelvin)            191.92   239.08   287.39   307.98   328.42
                              366.76   424.03   483.09   518.39   535.47
                              551.05   575.26   581.67   620.43   675.38
                              806.07   817.79   836.35   860.43   889.87
                              902.42   954.21   979.80  1113.06  1286.23
                             1305.42  1308.41  1311.86  1315.56  1334.48
                             1424.80  1567.99  1638.65  1640.14  1646.51
                             1678.86  1693.97  1704.92  1706.32  1736.04
                             1765.35  1803.50  1805.50  1808.50  1812.70
                             1832.27  1936.97  1974.36  1987.63  1989.70
                             1996.06  2004.28  2129.40  2136.54  2140.66
                             2146.96  2158.10  2164.86  2168.91  4054.69
                             4087.37  4101.64  4106.16  4117.89  4139.98
                             4146.07  4151.05  4164.24  4271.78  4325.00
                             4360.04  5039.16  5683.35

 Zero-point correction=                           0.218852 (Hartree/Particle)
 Thermal correction to Energy=                    0.233944
 Thermal correction to Enthalpy=                  0.234888
 Thermal correction to Gibbs Free Energy=         0.177006
 Sum of electronic and zero-point Energies=          -1053.117917
 Sum of electronic and thermal Energies=             -1053.102825
 Sum of electronic and thermal Enthalpies=           -1053.101881
 Sum of electronic and thermal Free Energies=        -1053.159763

                     E (Thermal)             CV                S
                      KCal/Mol        Cal/Mol-Kelvin    Cal/Mol-Kelvin
 Total                  146.802             56.742            121.824
 Electronic               0.000              0.000              0.000
 Translational            0.889              2.981             42.149
 Rotational               0.889              2.981             31.539
 Vibrational            145.025             50.780             48.136
 Vibration     1          0.595              1.979              5.011
 Vibration     2          0.597              1.972              4.335
 Vibration     3          0.600              1.964              3.926
 Vibration     4          0.603              1.953              3.550
 Vibration     5          0.605              1.945              3.353
 Vibration     6          0.613              1.920              2.897
 Vibration     7          0.624              1.884              2.478
 Vibration     8          0.638              1.840              2.135
 Vibration     9          0.644              1.820              2.009
 Vibration    10          0.651              1.798              1.893
 Vibration    11          0.665              1.755              1.696
 Vibration    12          0.689              1.684              1.447
 Vibration    13          0.717              1.604              1.232
 Vibration    14          0.735              1.554              1.121
 Vibration    15          0.744              1.529              1.071
 Vibration    16          0.752              1.506              1.027
 Vibration    17          0.766              1.470              0.963
 Vibration    18          0.769              1.461              0.947
 Vibration    19          0.792              1.402              0.855
 Vibration    20          0.827              1.318              0.739
 Vibration    21          0.916              1.117              0.523
 Vibration    22          0.924              1.100              0.507
 Vibration    23          0.938              1.072              0.483
 Vibration    24          0.956              1.036              0.453
 Vibration    25          0.978              0.993              0.419

 Optimization completed.
    -- Stationary point found.
 Normal termination of Gaussian 16 at Wed Mar 20 13:52:53 2024.
