 Gaussian 16, Revision C.01,
 Gaussian 16:  ES64L-G16RevC.01  3-Jul-2019

 ---------------------------------------------
 # opt freq wb97xd/def2tzvpp geom=connectivity
 ---------------------------------------------

 ----------------------------------------------
 IRC Forward of possible PL1 collapse to HL1 TS
 ----------------------------------------------
 Symbolic Z-matrix:
 Charge = -2 Multiplicity = 1

 SCF Done:  E(RwB97XD) =  -822.056698304     A.U. after   15 cycles
 SCF Done:  E(RwB97XD) =  -822.035492192     A.U. after   14 cycles
 SCF Done:  E(RwB97XD) =  -822.049171024     A.U. after   15 cycles
 SCF Done:  E(RwB97XD) =  -822.056739132     A.U. after   10 cycles
 SCF Done:  E(RwB97XD) =  -822.056689798     A.U. after   13 cycles
 SCF Done:  E(RwB97XD) =  -822.056731808     A.U. after   14 cycles
 SCF Done:  E(RwB97XD) =  -822.056958211     A.U. after   10 cycles
 SCF Done:  E(RwB97XD) =  -822.057148795     A.U. after   12 cycles
 SCF Done:  E(RwB97XD) =  -822.057347370     A.U. after   12 cycles
 SCF Done:  E(RwB97XD) =  -822.057430767     A.U. after   12 cycles
 SCF Done:  E(RwB97XD) =  -822.058433574     A.U. after    9 cycles
 SCF Done:  E(RwB97XD) =  -822.058434270     A.U. after    9 cycles
 SCF Done:  E(RwB97XD) =  -822.058435012     A.U. after    9 cycles
 SCF Done:  E(RwB97XD) =  -822.058435712     A.U. after   11 cycles
 SCF Done:  E(RwB97XD) =  -822.058435789     A.U. after   11 cycles
 SCF Done:  E(RwB97XD) =  -822.058438325     A.U. after    9 cycles
 SCF Done:  E(RwB97XD) =  -822.058439645     A.U. after    9 cycles
 SCF Done:  E(RwB97XD) =  -822.058438471     A.U. after   10 cycles
 SCF Done:  E(RwB97XD) =  -822.058439013     A.U. after    8 cycles
 Optimization completed.
    -- Stationary point found.
 Normal termination of Gaussian 16 at Sun Feb 11 16:55:31 2024.

 ----------------------------------------------------------------------
 #N Geom=AllCheck Guess=TCheck SCRF=Check GenChk RwB97XD/def2TZVPP Freq
 ----------------------------------------------------------------------

 Structure from the checkpoint file:  "IRC_PmonoL1toHbiL1_reverse_ReactantOpt.chk"
 ----------------------------------------------
 IRC Forward of possible PL1 collapse to HL1 TS
 ----------------------------------------------
 Charge = -2 Multiplicity = 1

                         Standard orientation:
 ---------------------------------------------------------------------
 Center     Atomic      Atomic             Coordinates (Angstroms)
 Number     Number       Type             X           Y           Z
 ---------------------------------------------------------------------
      1         14           0        0.555295    0.016522   -0.050451
      2          8           0        0.594468    0.645917    1.675824
      3          8           0        0.443064   -0.756942   -1.649328
      4          8           0        1.678102    1.282506   -0.537393
      5          8           0       -0.828105    1.153808   -0.512425
      6          8           0       -0.834627   -1.131969    0.598559
      7          8           0        1.811663   -1.167054    0.379623
      8          6           0       -2.034484   -0.777516    0.049992
      9          1           0       -2.896091   -1.125683    0.664329
     10          1           0       -2.167392   -1.202223   -0.968508
     11          6           0       -2.053666    0.753641   -0.065280
     12          1           0       -2.290525    1.175567    0.941849
     13          1           0       -2.871353    1.083653   -0.743909
     14          1           0        2.034534   -0.884473    1.264605
     15          1           0       -0.098749    0.117025    2.069339
     16          1           0        1.130136    2.064877   -0.528568
     17          1           0        0.997683   -1.526923   -1.539993
 ---------------------------------------------------------------------

 SCF Done:  E(RwB97XD) =  -822.058439013     A.U. after    1 cycles

 The electronic state is 1-A.
 Alpha  occ. eigenvalues --  -65.94558 -18.86638 -18.86176 -18.85299 -18.84631
 Alpha  occ. eigenvalues --  -18.84581 -18.84374 -10.00982 -10.00500  -5.04983
 Alpha  occ. eigenvalues --   -3.39581  -3.39564  -3.39481  -0.77658  -0.72413
 Alpha  occ. eigenvalues --   -0.71968  -0.69295  -0.68939  -0.67515  -0.48126
 Alpha  occ. eigenvalues --   -0.36192  -0.26865  -0.24992  -0.23187  -0.21249
 Alpha  occ. eigenvalues --   -0.20305  -0.18562  -0.16939  -0.16120  -0.14209
 Alpha  occ. eigenvalues --   -0.09560  -0.07840  -0.06444  -0.05986  -0.03692
 Alpha  occ. eigenvalues --   -0.03174  -0.02694  -0.01328  -0.00809   0.00713
 Alpha  occ. eigenvalues --    0.01616   0.02076
 Alpha virt. eigenvalues --    0.38512   0.41906   0.42672   0.42893   0.46316
 Alpha virt. eigenvalues --    0.46931   0.47431   0.48812   0.50904   0.53893
 Alpha virt. eigenvalues --    0.54994   0.55634   0.57841   0.59361   0.61136

 Mulliken charges:
               1
     1  Si   0.951008
     2  O   -0.627361
     3  O   -0.576431
     4  O   -0.560695
     5  O   -0.528630
     6  O   -0.554512
     7  O   -0.600566
     8  C    0.150783
     9  H   -0.073912
    10  H   -0.051923
    11  C    0.129732
    12  H   -0.071229
    13  H   -0.070595
    14  H    0.115836
    15  H    0.119253
    16  H    0.126655
    17  H    0.122587
 Sum of Mulliken charges =  -2.00000

 Dipole moment (field-independent basis, Debye):
    X=             -3.3724    Y=             -0.2582    Z=              1.1112  Tot=              3.5602
 Quadrupole moment (field-independent basis, Debye-Ang):
   XX=            -89.7446   YY=            -79.8815   ZZ=            -80.7892
   XY=             -1.9930   XZ=              0.4326   YZ=             -0.6619

  Exact polarizability:      96.072      -0.818      77.981       0.356       1.545      79.265
 Approx polarizability:      91.605      -1.157      82.051       0.217       0.291      84.013

                      1                      2                      3
                      A                      A                      A
 Frequencies --     96.8024               133.7589               166.7157
 Red. masses --      3.3473                 1.3385                 1.4350
 Frc consts  --      0.0185                 0.0141                 0.0235
 IR Inten    --      6.1741                27.1615                29.1440

                      4                      5                      6
                      A                      A                      A
 Frequencies --    212.6528               229.6270               254.1537
 Red. masses --      2.6284                 2.6431                 3.9853
 Frc consts  --      0.0700                 0.0821                 0.1517
 IR Inten    --      5.9791                 9.2453                10.0549

                      7                      8                      9
                      A                      A                      A
 Frequencies --    292.0022               303.5838               343.0560
 Red. masses --      3.7249                 3.4762                 1.8187
 Frc consts  --      0.1871                 0.1888                 0.1261
 IR Inten    --     30.6120                 8.8468                 8.4726

                     10                     11                     12
                      A                      A                      A
 Frequencies --    349.9606               380.2556               392.8900
 Red. masses --      5.0044                 4.7275                 3.3003
 Frc consts  --      0.3611                 0.4027                 0.3002
 IR Inten    --      9.3339                31.6782                 9.6853

                     13                     14                     15
                      A                      A                      A
 Frequencies --    396.1802               416.3700               446.9724
 Red. masses --      5.9228                 5.1307                 5.8320
 Frc consts  --      0.5477                 0.5241                 0.6865
 IR Inten    --     20.3901                14.5278                32.7747

                     16                     17                     18
                      A                      A                      A
 Frequencies --    516.1968               548.5006               555.6176
 Red. masses --      5.6488                 9.7554                 1.4016
 Frc consts  --      0.8868                 1.7292                 0.2549
 IR Inten    --     22.4083               145.8011                 6.6522

                     19                     20                     21
                      A                      A                      A
 Frequencies --    616.6956               641.2775               648.1185
 Red. masses --      2.7101                 8.1913                 5.5265
 Frc consts  --      0.6073                 1.9847                 1.3678
 IR Inten    --     30.4939               333.0002               330.8716

                     22                     23                     24
                      A                      A                      A
 Frequencies --    668.6253               902.3622               927.0851
 Red. masses --      7.0280                 2.3268                 1.7892
 Frc consts  --      1.8512                 1.1163                 0.9060
 IR Inten    --    331.9712                16.8654                52.9690

                     25                     26                     27
                      A                      A                      A
 Frequencies --    993.9685              1001.9854              1004.2178
 Red. masses --      1.1567                 1.1572                 1.1770
 Frc consts  --      0.6733                 0.6845                 0.6993
 IR Inten    --    206.3099               187.5841               184.9743

                     28                     29                     30
                      A                      A                      A
 Frequencies --   1045.3068              1139.6545              1176.5378
 Red. masses --      1.2307                 2.2618                 3.1413
 Frc consts  --      0.7923                 1.7308                 2.5619
 IR Inten    --    226.7156                55.9922                16.2793

                     31                     32                     33
                      A                      A                      A
 Frequencies --   1200.5726              1245.4353              1251.7104
 Red. masses --      3.2008                 1.2708                 1.2946
 Frc consts  --      2.7182                 1.1614                 1.1951
 IR Inten    --    175.1632                12.2698                 6.3252

                     34                     35                     36
                      A                      A                      A
 Frequencies --   1373.5942              1382.1223              1475.0256
 Red. masses --      1.3737                 1.3228                 1.0948
 Frc consts  --      1.5270                 1.4889                 1.4034
 IR Inten    --     17.0368                25.8533                 4.6241

                     37                     38                     39
                      A                      A                      A
 Frequencies --   1484.0615              2748.1902              2792.6390
 Red. masses --      1.0956                 1.0793                 1.0710
 Frc consts  --      1.4217                 4.8029                 4.9210
 IR Inten    --     10.7005               152.3077               228.6470

                     40                     41                     42
                      A                      A                      A
 Frequencies --   2810.0628              2838.0328              3906.4508
 Red. masses --      1.0774                 1.0745                 1.0643
 Frc consts  --      5.0125                 5.0991                 9.5697
 IR Inten    --    496.3828               446.3087                 9.2352

                     43                     44                     45
                      A                      A                      A
 Frequencies --   3928.1335              3937.7898              3940.5658
 Red. masses --      1.0652                 1.0640                 1.0645
 Frc consts  --      9.6837                 9.7206                 9.7394
 IR Inten    --      8.0712                 3.6361                 2.5903

 - Thermochemistry -
 -------------------
 Temperature   298.150 Kelvin.  Pressure   1.00000 Atm.
 Atom     1 has atomic number 14 and mass  27.97693

 Molecular mass:   156.00902 amu.
 Principal axes and moments of inertia in atomic units:
                           1         2         3
     Eigenvalues --   890.695061382.606061439.14070
           X            0.99998  -0.00683   0.00180
           Y            0.00669   0.99760   0.06889
           Z           -0.00226  -0.06888   0.99762
 This molecule is an asymmetric top.
 Rotational symmetry number  1.
 Warning -- assumption of classical behavior for rotation
           may cause significant error
 Rotational temperatures (Kelvin)      0.09724     0.06265     0.06018
 Rotational constants (GHZ):           2.02622     1.30532     1.25404
 Zero-point vibrational energy     317701.3 (Joules/Mol)
                                   75.93244 (Kcal/Mol)
 Warning -- explicit consideration of  19 degrees of freedom as
           vibrations may cause significant error
 Vibrational temperatures:    139.28   192.45   239.87   305.96   330.38
          (Kelvin)            365.67   420.13   436.79   493.58   503.52
                              547.10   565.28   570.01   599.06   643.09
                              742.69   789.17   799.41   887.29   922.66
                              932.50   962.00  1298.30  1333.87  1430.10
                             1441.63  1444.85  1503.96  1639.71  1692.78
                             1727.36  1791.90  1800.93  1976.30  1988.57
                             2122.23  2135.23  3954.03  4017.98  4043.05
                             4083.30  5620.51  5651.71  5665.60  5669.60

 Zero-point correction=                           0.121006 (Hartree/Particle)
 Thermal correction to Energy=                    0.131993
 Thermal correction to Enthalpy=                  0.132938
 Thermal correction to Gibbs Free Energy=         0.086115
 Sum of electronic and zero-point Energies=           -821.937433
 Sum of electronic and thermal Energies=              -821.926446
 Sum of electronic and thermal Enthalpies=            -821.925501
 Sum of electronic and thermal Free Energies=         -821.972324

                     E (Thermal)             CV                S
                      KCal/Mol        Cal/Mol-Kelvin    Cal/Mol-Kelvin
 Total                   82.827             41.974             98.547
 Electronic               0.000              0.000              0.000
 Translational            0.889              2.981             41.044
 Rotational               0.889              2.981             28.962
 Vibrational             81.050             36.012             28.541
 Vibration     1          0.603              1.951              3.518
 Vibration     2          0.613              1.920              2.891
 Vibration     3          0.624              1.883              2.472
 Vibration     4          0.644              1.822              2.021
 Vibration     5          0.652              1.796              1.882
 Vibration     6          0.665              1.756              1.702
 Vibration     7          0.687              1.689              1.462
 Vibration     8          0.695              1.667              1.397
 Vibration     9          0.722              1.589              1.198
 Vibration    10          0.727              1.575              1.166
 Vibration    11          0.750              1.512              1.038
 Vibration    12          0.760              1.485              0.989
 Vibration    13          0.763              1.478              0.977
 Vibration    14          0.780              1.435              0.904
 Vibration    15          0.806              1.368              0.805
 Vibration    16          0.871              1.214              0.619
 Vibration    17          0.904              1.143              0.547
 Vibration    18          0.911              1.127              0.533
 Vibration    19          0.976              0.997              0.422

 Optimization completed.
    -- Stationary point found.
 Normal termination of Gaussian 16 at Sun Feb 11 17:34:14 2024.
