 Gaussian 16, Revision C.01,
 Gaussian 16:  ES64L-G16RevC.01  3-Jul-2019

 -----------------------------------------------------
 # opt=modredundant wb97xd/def2tzvpp geom=connectivity
 -----------------------------------------------------

 ------------------------------------------
 Even more refined scan of weird dip in PES
 ------------------------------------------
 Symbolic Z-matrix:
 Charge = -1 Multiplicity = 1

 SCF Done:  E(RwB97XD) =  -822.758075574     A.U. after   14 cycles
 SCF Done:  E(RwB97XD) =  -822.758071143     A.U. after    8 cycles
 SCF Done:  E(RwB97XD) =  -822.758075715     A.U. after    8 cycles
 SCF Done:  E(RwB97XD) =  -822.758075364     A.U. after    8 cycles
 SCF Done:  E(RwB97XD) =  -822.758074784     A.U. after    7 cycles
 SCF Done:  E(RwB97XD) =  -822.758075600     A.U. after    7 cycles
 SCF Done:  E(RwB97XD) =  -822.758075847     A.U. after    7 cycles
 Optimization completed.
    -- Stationary point found.
 SCF Done:  E(RwB97XD) =  -822.758071640     A.U. after    7 cycles
 SCF Done:  E(RwB97XD) =  -822.758071204     A.U. after    8 cycles
 SCF Done:  E(RwB97XD) =  -822.758071630     A.U. after    9 cycles
 Optimization completed.
 SCF Done:  E(RwB97XD) =  -822.809922499     A.U. after    6 cycles
 SCF Done:  E(RwB97XD) =  -822.809944517     A.U. after    5 cycles
 SCF Done:  E(RwB97XD) =  -822.809966528     A.U. after    6 cycles
 SCF Done:  E(RwB97XD) =  -822.809988529     A.U. after    5 cycles
 SCF Done:  E(RwB97XD) =  -822.810010522     A.U. after    5 cycles
 SCF Done:  E(RwB97XD) =  -822.810032507     A.U. after    5 cycles
 SCF Done:  E(RwB97XD) =  -822.810054485     A.U. after    5 cycles
 SCF Done:  E(RwB97XD) =  -822.810076456     A.U. after    5 cycles
 SCF Done:  E(RwB97XD) =  -822.810098420     A.U. after    5 cycles
    -- Stationary point found.
 SCF Done:  E(RwB97XD) =  -822.810120376     A.U. after    5 cycles
 Optimization completed.
    -- Stationary point found.

                         Standard orientation:
 ---------------------------------------------------------------------
 Center     Atomic      Atomic             Coordinates (Angstroms)
 Number     Number       Type             X           Y           Z
 ---------------------------------------------------------------------
      1         14           0        0.611526   -0.628456   -0.166488
      2          8           0        0.435431   -1.905521   -1.204061
      3          8           0        2.759945    1.874431    0.395529
      4          1           0        3.431021    1.702534   -0.262586
      5          8           0        0.650402    0.792702   -0.808867
      6          1           0        1.919059    1.616157   -0.070404
      7          8           0        1.870652   -0.963854    0.839741
      8          1           0        2.334943   -0.148453    1.057728
      9          6           0       -2.164252   -0.544556    0.501600
     10          1           0       -2.900801   -0.956531    1.208414
     11          1           0       -2.377779   -0.992276   -0.483281
     12          6           0       -2.428747    0.957503    0.390065
     13          1           0       -2.033231    1.430020    1.302379
     14          1           0       -3.514750    1.112199    0.382352
     15          8           0       -0.897099   -0.888796    0.976607
     16          8           0       -1.929533    1.567170   -0.767012
     17          1           0       -0.963850    1.381076   -0.826751
     18          1           0       -0.016374   -2.633087   -0.782504
 ---------------------------------------------------------------------

 The electronic state is 1-A.
 Alpha  occ. eigenvalues --  -66.13433 -19.09885 -19.08998 -19.08751 -19.07163
 Alpha  occ. eigenvalues --  -19.06907 -19.01996 -10.17822 -10.17609  -5.25046
 Alpha  occ. eigenvalues --   -3.59670  -3.59540  -3.59370  -0.96741  -0.95593
 Alpha  occ. eigenvalues --   -0.95380  -0.93831  -0.91715  -0.84185  -0.67019
 Alpha  occ. eigenvalues --   -0.55225  -0.48733  -0.45728  -0.44353  -0.44015
 Alpha  occ. eigenvalues --   -0.41566  -0.39189  -0.35246  -0.34484  -0.33667
 Alpha  occ. eigenvalues --   -0.32555  -0.31527  -0.29192  -0.27616  -0.26718
 Alpha  occ. eigenvalues --   -0.25555  -0.24971  -0.23520  -0.20656  -0.20180
 Alpha  occ. eigenvalues --   -0.20055  -0.17332
 Alpha virt. eigenvalues --    0.23033   0.24932   0.26166   0.29178   0.31331
 Alpha virt. eigenvalues --    0.31725   0.31831   0.32445   0.33846   0.33946
 Alpha virt. eigenvalues --    0.36854   0.38208   0.40067   0.41522   0.43011

 Mulliken charges:
               1
     1  Si   0.807283
     2  O   -0.436184
     3  O   -0.490902
     4  H    0.161610
     5  O   -0.705433
     6  H    0.268894
     7  O   -0.458955
     8  H    0.192198
     9  C    0.069867
    10  H    0.018173
    11  H    0.020765
    12  C    0.077152
    13  H    0.030043
    14  H    0.020494
    15  O   -0.524623
    16  O   -0.455787
    17  H    0.244638
    18  H    0.160767
 Sum of Mulliken charges =  -1.00000

 Dipole moment (field-independent basis, Debye):
    X=             -0.7570    Y=             -2.4249    Z=              0.4898  Tot=              2.5871
 Quadrupole moment (field-independent basis, Debye-Ang):
   XX=            -73.2829   YY=            -75.3585   ZZ=            -73.0064
   XY=              3.4964   XZ=             -5.3888   YZ=              2.1816

 Normal termination of Gaussian 16 at Tue Nov 14 23:01:02 2023.
