 Gaussian 16, Revision C.01,
 Gaussian 16:  ES64L-G16RevC.01  3-Jul-2019

 ---------------------------------------------
 # opt freq wb97xd/def2tzvpp geom=connectivity
 ---------------------------------------------

 convert QmonoL to QbiL attacking OH deprotonated TS to QbiLmonoL to Qb
  iL2
 ----------------------------------------------------------------------
 Symbolic Z-matrix:
 Charge = -1 Multiplicity = 1

 SCF Done:  E(RwB97XD) =  -823.749341993     A.U. after   14 cycles
 SCF Done:  E(RwB97XD) =  -823.749948847     A.U. after   11 cycles
 SCF Done:  E(RwB97XD) =  -823.750707558     A.U. after   12 cycles
 SCF Done:  E(RwB97XD) =  -823.751119885     A.U. after   12 cycles
 SCF Done:  E(RwB97XD) =  -823.751558092     A.U. after   12 cycles
 SCF Done:  E(RwB97XD) =  -823.751790547     A.U. after   12 cycles
 SCF Done:  E(RwB97XD) =  -823.751864061     A.U. after   11 cycles
 SCF Done:  E(RwB97XD) =  -823.751893066     A.U. after   11 cycles
 SCF Done:  E(RwB97XD) =  -823.751897753     A.U. after    8 cycles
 SCF Done:  E(RwB97XD) =  -823.751901089     A.U. after    8 cycles
 SCF Done:  E(RwB97XD) =  -823.751901709     A.U. after    8 cycles
 SCF Done:  E(RwB97XD) =  -823.751902020     A.U. after    7 cycles
 SCF Done:  E(RwB97XD) =  -823.751902176     A.U. after    7 cycles
 Optimization completed.
    -- Stationary point found.
 Normal termination of Gaussian 16 at Sun Mar 10 19:55:51 2024.

 ----------------------------------------------------------------------
 #N Geom=AllCheck Guess=TCheck SCRF=Check GenChk RwB97XD/def2TZVPP Freq
 ----------------------------------------------------------------------

 ----------------------------------------------------------------------
 convert QmonoL to QbiL attacking OH deprotonated TS to QbiLmonoL to Qb
  iL2
 ----------------------------------------------------------------------
 Charge = -1 Multiplicity = 1

                         Standard orientation:
 ---------------------------------------------------------------------
 Center     Atomic      Atomic             Coordinates (Angstroms)
 Number     Number       Type             X           Y           Z
 ---------------------------------------------------------------------
      1         14           0        0.015332    0.085242   -0.194842
      2          8           0        0.990152    0.697122    1.066427
      3          8           0        0.065212    0.965877   -1.638271
      4          1           0       -0.536251    1.701101   -1.536699
      5          8           0        1.323958   -0.964344   -0.678573
      6          8           0       -1.006496   -1.278096   -0.119377
      7          6           0       -2.287820   -1.049693    0.371270
      8          1           0       -2.348480   -1.346708    1.429757
      9          1           0       -3.022529   -1.644956   -0.186068
     10          6           0       -2.548546    0.452098    0.235926
     11          1           0       -2.949344    0.663269   -0.774019
     12          1           0       -3.298588    0.797088    0.961264
     13          8           0       -1.330862    1.068976    0.445276
     14          6           0        2.538423   -0.428043   -0.295808
     15          1           0        3.312836   -1.205496   -0.245504
     16          1           0        2.884201    0.342693   -1.006816
     17          6           0        2.296370    0.210010    1.076932
     18          1           0        2.411563   -0.545254    1.869560
     19          1           0        3.005664    1.022366    1.282546
 ---------------------------------------------------------------------

 SCF Done:  E(RwB97XD) =  -823.751902176     A.U. after    1 cycles

 The electronic state is 1-A.
 Alpha  occ. eigenvalues --  -66.11891 -19.06053 -19.05798 -19.05090 -19.04237
 Alpha  occ. eigenvalues --  -19.03689 -10.17259 -10.17048 -10.16919 -10.16388
 Alpha  occ. eigenvalues --   -5.23013  -3.57608  -3.57573  -3.57438  -0.97339
 Alpha  occ. eigenvalues --   -0.94921  -0.90915  -0.90309  -0.88627  -0.66899
 Alpha  occ. eigenvalues --   -0.64649  -0.54946  -0.52487  -0.46429  -0.42563
 Alpha  occ. eigenvalues --   -0.42408  -0.40911  -0.40514  -0.38796  -0.36585
 Alpha  occ. eigenvalues --   -0.34370  -0.33567  -0.32592  -0.29991  -0.27909
 Alpha  occ. eigenvalues --   -0.24393  -0.23481  -0.22552  -0.21990  -0.20572
 Alpha  occ. eigenvalues --   -0.19970  -0.18512  -0.17154  -0.16075
 Alpha virt. eigenvalues --    0.25198   0.26183   0.26885   0.28704   0.29695
 Alpha virt. eigenvalues --    0.29956   0.30360   0.33059   0.33699   0.34936
 Alpha virt. eigenvalues --    0.35193   0.36467   0.38574   0.40114   0.40990

 Mulliken charges:
               1
     1  Si   0.746951
     2  O   -0.414079
     3  O   -0.436485
     4  H    0.143844
     5  O   -0.494535
     6  O   -0.409795
     7  C    0.087635
     8  H    0.018319
     9  H    0.010849
    10  C    0.052983
    11  H    0.001064
    12  H    0.015873
    13  O   -0.525734
    14  C    0.075511
    15  H    0.014981
    16  H    0.009758
    17  C    0.078678
    18  H    0.015208
    19  H    0.008976
 Sum of Mulliken charges =  -1.00000

 Dipole moment (field-independent basis, Debye):
    X=             -0.7227    Y=              0.3110    Z=              1.0793  Tot=              1.3356
 Quadrupole moment (field-independent basis, Debye-Ang):
   XX=            -72.8991   YY=            -76.5116   ZZ=            -76.9684
   XY=              0.9218   XZ=              2.6022   YZ=             -4.3477

  Exact polarizability:     107.388       0.777      79.429       0.639      -2.180      80.158
 Approx polarizability:      99.067       0.633      88.056       0.512      -0.456      87.136

                      1                      2                      3
                      A                      A                      A
 Frequencies --     74.8788               126.6865               132.7276
 Red. masses --      3.4079                 4.1854                 3.2302
 Frc consts  --      0.0113                 0.0396                 0.0335
 IR Inten    --      5.4935                 1.2144                 1.3809

                      4                      5                      6
                      A                      A                      A
 Frequencies --    176.2512               228.8105               247.0491
 Red. masses --      3.5941                 2.4673                 2.5634
 Frc consts  --      0.0658                 0.0761                 0.0922
 IR Inten    --      0.8409                 2.7650                 0.1830

                      7                      8                      9
                      A                      A                      A
 Frequencies --    329.1094               365.0434               382.6705
 Red. masses --      5.9885                 5.7414                 5.8590
 Frc consts  --      0.3822                 0.4508                 0.5055
 IR Inten    --      0.5658                21.8078                 7.5146

                     10                     11                     12
                      A                      A                      A
 Frequencies --    454.5664               477.6992               520.0373
 Red. masses --      7.7045                 8.6851                 1.1684
 Frc consts  --      0.9380                 1.1677                 0.1862
 IR Inten    --      9.5854                23.1571                42.4817

                     13                     14                     15
                      A                      A                      A
 Frequencies --    595.9710               630.2688               644.1655
 Red. masses --      8.6791                 3.7940                 2.6529
 Frc consts  --      1.8162                 0.8880                 0.6486
 IR Inten    --     56.6640                29.4788                 5.0365

                     16                     17                     18
                      A                      A                      A
 Frequencies --    682.6378               694.7260               797.0290
 Red. masses --      6.4077                 4.5517                 8.6167
 Frc consts  --      1.7593                 1.2943                 3.2251
 IR Inten    --     43.9301               214.2424               323.6315

                     19                     20                     21
                      A                      A                      A
 Frequencies --    826.3816               908.3288               921.9111
 Red. masses --     14.7726                 1.6914                 1.7720
 Frc consts  --      5.9438                 0.8222                 0.8874
 IR Inten    --    247.0191                 0.5408                50.6778

                     22                     23                     24
                      A                      A                      A
 Frequencies --    933.8042               938.2269               996.6681
 Red. masses --      2.4457                 2.4250                 1.2445
 Frc consts  --      1.2565                 1.2577                 0.7284
 IR Inten    --     18.6329                10.1469               224.2170

                     25                     26                     27
                      A                      A                      A
 Frequencies --   1145.2294              1151.4156              1162.5642
 Red. masses --      3.5419                 2.8500                 3.0330
 Frc consts  --      2.7370                 2.2262                 2.4152
 IR Inten    --    284.3158                88.2370                 5.4764

                     28                     29                     30
                      A                      A                      A
 Frequencies --   1175.4016              1183.2251              1197.3411
 Red. masses --      2.6578                 4.1547                 3.9284
 Frc consts  --      2.1634                 3.4271                 3.3182
 IR Inten    --    250.6950                 5.1044                14.4699

                     31                     32                     33
                      A                      A                      A
 Frequencies --   1260.6911              1262.4179              1263.6759
 Red. masses --      1.1712                 1.1688                 1.1756
 Frc consts  --      1.0967                 1.0975                 1.1060
 IR Inten    --     18.9075                16.7121                 3.0029

                     34                     35                     36
                      A                      A                      A
 Frequencies --   1263.9292              1377.4358              1385.7078
 Red. masses --      1.2065                 1.3031                 1.3313
 Frc consts  --      1.1356                 1.4568                 1.5062
 IR Inten    --      2.8494                 1.8398                11.5606

                     37                     38                     39
                      A                      A                      A
 Frequencies --   1394.1138              1397.3704              1511.3652
 Red. masses --      1.3126                 1.3220                 1.0881
 Frc consts  --      1.5031                 1.5209                 1.4644
 IR Inten    --     11.6150                 6.9578                 0.0398

                     40                     41                     42
                      A                      A                      A
 Frequencies --   1512.9582              1519.1158              1520.7091
 Red. masses --      1.0890                 1.0940                 1.0946
 Frc consts  --      1.4687                 1.4875                 1.4914
 IR Inten    --      0.3561                 7.6587                 1.1791

                     43                     44                     45
                      A                      A                      A
 Frequencies --   2883.1736              2919.5893              2948.4469
 Red. masses --      1.0738                 1.0721                 1.0666
 Frc consts  --      5.2591                 5.3841                 5.4630
 IR Inten    --    145.1929               114.8176                47.3328

                     46                     47                     48
                      A                      A                      A
 Frequencies --   2949.5610              2986.3521              2992.6084
 Red. masses --      1.0666                 1.0824                 1.0826
 Frc consts  --      5.4674                 5.6877                 5.7123
 IR Inten    --    147.9947               275.8962               171.5412

                     49                     50                     51
                      A                      A                      A
 Frequencies --   3003.1832              3004.5859              3946.2401
 Red. masses --      1.0997                 1.0958                 1.0647
 Frc consts  --      5.8437                 5.8286                 9.7689
 IR Inten    --    179.6260                83.6440                14.6709

 - Thermochemistry -
 -------------------
 Temperature   298.150 Kelvin.  Pressure   1.00000 Atm.
 Atom     1 has atomic number 14 and mass  27.97693

 Molecular mass:   165.02193 amu.
 Principal axes and moments of inertia in atomic units:
                           1         2         3
     Eigenvalues --   766.159471928.763611972.01685
           X            0.99998   0.00575   0.00363
           Y           -0.00427   0.94642  -0.32292
           Z           -0.00529   0.32289   0.94642
 This molecule is an asymmetric top.
 Rotational symmetry number  1.
 Warning -- assumption of classical behavior for rotation
           may cause significant error
 Rotational temperatures (Kelvin)      0.11305     0.04491     0.04392
 Rotational constants (GHZ):           2.35557     0.93570     0.91518
 Zero-point vibrational energy     385221.8 (Joules/Mol)
                                   92.07022 (Kcal/Mol)
 Warning -- explicit consideration of  13 degrees of freedom as
           vibrations may cause significant error
 Vibrational temperatures:    107.73   182.27   190.97   253.59   329.21
          (Kelvin)            355.45   473.51   525.22   550.58   654.02
                              687.30   748.22   857.47   906.82   926.81
                              982.16   999.56  1146.75  1188.98  1306.88
                             1326.42  1343.54  1349.90  1433.98  1647.73
                             1656.63  1672.67  1691.14  1702.40  1722.71
                             1813.85  1816.34  1818.15  1818.51  1981.82
                             1993.72  2005.82  2010.50  2174.52  2176.81
                             2185.67  2187.96  4148.24  4200.64  4242.16
                             4243.76  4296.69  4305.70  4320.91  4322.93
                             5677.76

 Zero-point correction=                           0.146723 (Hartree/Particle)
 Thermal correction to Energy=                    0.156350
 Thermal correction to Enthalpy=                  0.157294
 Thermal correction to Gibbs Free Energy=         0.111918
 Sum of electronic and zero-point Energies=           -823.605179
 Sum of electronic and thermal Energies=              -823.595552
 Sum of electronic and thermal Enthalpies=            -823.594608
 Sum of electronic and thermal Free Energies=         -823.639984

                     E (Thermal)             CV                S
                      KCal/Mol        Cal/Mol-Kelvin    Cal/Mol-Kelvin
 Total                   98.111             36.648             95.502
 Electronic               0.000              0.000              0.000
 Translational            0.889              2.981             41.211
 Rotational               0.889              2.981             29.456
 Vibrational             96.334             30.686             24.834
 Vibration     1          0.599              1.966              4.021
 Vibration     2          0.611              1.926              2.996
 Vibration     3          0.613              1.921              2.906
 Vibration     4          0.628              1.872              2.368
 Vibration     5          0.651              1.797              1.888
 Vibration     6          0.661              1.768              1.752
 Vibration     7          0.712              1.617              1.264
 Vibration     8          0.738              1.544              1.101
 Vibration     9          0.752              1.507              1.029
 Vibration    10          0.813              1.351              0.782
 Vibration    11          0.834              1.300              0.716
 Vibration    12          0.875              1.206              0.610
 Vibration    13          0.954              1.040              0.457

                           ! Non-Optimized Parameters !
 Normal termination of Gaussian 16 at Sun Mar 10 20:45:53 2024.
