 Gaussian 16, Revision C.01,
 Gaussian 16:  ES64L-G16RevC.01  3-Jul-2019

 ----------------------------------------------------------------------
 # irc=(calcfc,forward,maxpoints=100,maxcycle=100) wb97xd/def2tzvpp geo
 m=connectivity
 ----------------------------------------------------------------------

 --------------------------------------------------------
 Convert TS for PbiL to QbiL collapse to PbiLmL to QbiLmL
 --------------------------------------------------------
 Symbolic Z-matrix:
 Charge = -1 Multiplicity = 1

 SCF Done:  E(RwB97XD) =  -900.172966861     A.U. after   14 cycles
 SCF Done:  E(RwB97XD) =  -900.173212788     A.U. after   11 cycles
 SCF Done:  E(RwB97XD) =  -900.173935536     A.U. after   11 cycles
 SCF Done:  E(RwB97XD) =  -900.174972068     A.U. after   11 cycles
 SCF Done:  E(RwB97XD) =  -900.176020395     A.U. after   11 cycles
 SCF Done:  E(RwB97XD) =  -900.176040986     A.U. after    9 cycles
 SCF Done:  E(RwB97XD) =  -900.176929410     A.U. after   11 cycles
 SCF Done:  E(RwB97XD) =  -900.176950380     A.U. after    9 cycles
 SCF Done:  E(RwB97XD) =  -900.177765766     A.U. after   10 cycles
 SCF Done:  E(RwB97XD) =  -900.178537847     A.U. after   10 cycles
 SCF Done:  E(RwB97XD) =  -900.202078012     A.U. after    9 cycles
 SCF Done:  E(RwB97XD) =  -900.202132146     A.U. after    9 cycles
 SCF Done:  E(RwB97XD) =  -900.202184658     A.U. after    9 cycles
 SCF Done:  E(RwB97XD) =  -900.202237049     A.U. after    9 cycles
 SCF Done:  E(RwB97XD) =  -900.202287881     A.U. after    9 cycles
 SCF Done:  E(RwB97XD) =  -900.202338031     A.U. after    9 cycles
 SCF Done:  E(RwB97XD) =  -900.202339878     A.U. after    8 cycles
 SCF Done:  E(RwB97XD) =  -900.202388521     A.U. after    9 cycles
 SCF Done:  E(RwB97XD) =  -900.202437020     A.U. after    9 cycles
 SCF Done:  E(RwB97XD) =  -900.202483876     A.U. after    9 cycles

                          Input orientation:
 ---------------------------------------------------------------------
 Center     Atomic      Atomic             Coordinates (Angstroms)
 Number     Number       Type             X           Y           Z
 ---------------------------------------------------------------------
      1         14           0       -0.719105   -0.021707    0.348797
      2          8           0        0.285764    1.292253    0.130366
      3          8           0       -2.968598    2.316978   -0.614204
      4          1           0       -2.110154    2.735025   -0.668639
      5          8           0       -0.793554   -0.826509   -1.134643
      6          8           0       -2.040509    0.351122    1.046583
      7          1           0       -2.788095    1.584357    0.021094
      8          8           0        0.289888   -1.210397    1.058737
      9          6           0        0.197247   -2.403078    0.314742
     10          1           0        1.110311   -2.991473    0.441196
     11          1           0       -0.653423   -2.998752    0.668071
     12          6           0       -0.011661   -1.987348   -1.146651
     13          1           0        0.962106   -1.789478   -1.615667
     14          1           0       -0.513052   -2.775774   -1.717612
     15          6           0        1.393075    1.343237   -0.721847
     16          1           0        1.274840    0.657901   -1.570362
     17          1           0        1.463827    2.359941   -1.128614
     18          6           0        2.694945    1.032165   -0.002596
     19          1           0        3.530926    1.279365   -0.664695
     20          1           0        2.762402    1.682614    0.880566
     21          8           0        2.842690   -0.319988    0.355596
     22          1           0        2.010446   -0.613805    0.763469
 ---------------------------------------------------------------------

 Alpha  occ. eigenvalues --  -66.11808 -19.11445 -19.10764 -19.09905 -19.09570
 Alpha  occ. eigenvalues --  -19.05803 -18.99529 -10.21021 -10.20731 -10.20716
 Alpha  occ. eigenvalues --  -10.20645  -5.23699  -3.58363  -3.58254  -3.57889
 Alpha  occ. eigenvalues --   -1.01261  -0.99470  -0.96732  -0.94734  -0.92236
 Alpha  occ. eigenvalues --   -0.81713  -0.71053  -0.69744  -0.59091  -0.58007
 Alpha  occ. eigenvalues --   -0.48929  -0.47568  -0.46483  -0.44878  -0.43667
 Alpha  occ. eigenvalues --   -0.42397  -0.42199  -0.38607  -0.38081  -0.36964
 Alpha  occ. eigenvalues --   -0.36848  -0.31853  -0.30698  -0.28096  -0.27896
 Alpha  occ. eigenvalues --   -0.27536  -0.25575  -0.24528  -0.23715  -0.23075
 Alpha  occ. eigenvalues --   -0.22123  -0.21444  -0.17928  -0.17810
 Alpha virt. eigenvalues --    0.22971   0.23897   0.25154   0.26153   0.26735
 Alpha virt. eigenvalues --    0.27611   0.28977   0.29789   0.31292   0.32046
 Alpha virt. eigenvalues --    0.32761   0.33596   0.34251   0.35433   0.37611

 Mulliken charges:
               1
     1  Si   0.691664
     2  O   -0.408802
     3  O   -0.504291
     4  H    0.167805
     5  O   -0.419841
     6  O   -0.720881
     7  H    0.270679
     8  O   -0.443782
     9  C    0.037050
    10  H    0.047387
    11  H    0.059361
    12  C    0.059470
    13  H    0.033979
    14  H    0.041403
    15  C    0.038255
    16  H    0.056348
    17  H    0.045998
    18  C    0.079267
    19  H    0.030431
    20  H    0.043656
    21  O   -0.433823
    22  H    0.228664
 Sum of Mulliken charges =  -1.00000

 Dipole moment (field-independent basis, Debye):
    X=              6.6342    Y=             -2.7878    Z=             -2.2079  Tot=              7.5272
 Quadrupole moment (field-independent basis, Debye-Ang):
   XX=           -111.3728   YY=            -78.7578   ZZ=            -82.8383
   XY=             14.9953   XZ=             -1.5181   YZ=              0.7908

  Exact polarizability:       0.000       0.000       0.000       0.000       0.000       0.000
 Approx polarizability:     101.605      -0.415     102.755      -3.205      -0.548      94.386

 Normal termination of Gaussian 16 at Wed Mar 27 02:32:33 2024.
