 Gaussian 16, Revision C.01,
 Gaussian 16:  ES64L-G16RevC.01  3-Jul-2019

 ----------------------------------------------------
 # opt=calcfc freq wb97xd/def2tzvpp geom=connectivity
 ----------------------------------------------------

 Modify TS discovered for PmonoL1 to HBiL3 into potential PL3 to HL3 TS
  opt Unfreeze Result of previous job and optimize to a TS
 ----------------------------------------------------------------------
 Symbolic Z-matrix:
 Charge = -2 Multiplicity = 1

 SCF Done:  E(RwB97XD) =  -899.475255365     A.U. after   16 cycles
 SCF Done:  E(RwB97XD) =  -899.477080865     A.U. after   14 cycles
 SCF Done:  E(RwB97XD) =  -899.477551150     A.U. after   14 cycles
 SCF Done:  E(RwB97XD) =  -899.477689724     A.U. after   13 cycles
 SCF Done:  E(RwB97XD) =  -899.477753337     A.U. after   12 cycles
 SCF Done:  E(RwB97XD) =  -899.477755723     A.U. after   10 cycles
 SCF Done:  E(RwB97XD) =  -899.477756645     A.U. after    8 cycles
 Optimization completed.
    -- Stationary point found.
 Normal termination of Gaussian 16 at Tue Mar 26 05:53:17 2024.

 ----------------------------------------------------------------------
 #N Geom=AllCheck Guess=TCheck SCRF=Check GenChk RwB97XD/def2TZVPP Freq
 ----------------------------------------------------------------------

 ----------------------------------------------------------------------
 Modify TS discovered for PmonoL1 to HBiL3 into potential PL3 to HL3 TS
  opt Unfreeze Result of previous job and optimize to a TS
 ----------------------------------------------------------------------
 Charge = -2 Multiplicity = 1

                         Standard orientation:
 ---------------------------------------------------------------------
 Center     Atomic      Atomic             Coordinates (Angstroms)
 Number     Number       Type             X           Y           Z
 ---------------------------------------------------------------------
      1         14           0       -0.302533   -0.323298    0.068989
      2          8           0        0.584717   -1.311525   -1.022690
      3          8           0       -1.502381    0.564428    1.112747
      4          8           0       -1.702275   -0.714232   -0.924241
      5          8           0        0.497796    1.148628   -0.252351
      6          8           0        2.917894   -0.704720    0.301720
      7          8           0        0.287309   -1.041257    1.479463
      8          6           0        2.909952    0.632018    0.137034
      9          1           0        3.860665    1.032840   -0.338949
     10          1           0        2.828185    1.204131    1.100893
     11          6           0        1.796287    1.220531   -0.767452
     12          1           0        1.858884    0.722658   -1.747988
     13          1           0        2.030506    2.291526   -0.918122
     14          6           0       -2.914340   -0.174787   -0.554130
     15          1           0       -3.479092    0.174393   -1.437353
     16          1           0       -3.545746   -0.927964   -0.041394
     17          6           0       -2.600771    0.971279    0.412463
     18          1           0       -2.411718    1.898618   -0.170786
     19          1           0       -3.461452    1.178812    1.076748
     20          1           0        1.233742   -1.176955    1.296775
     21          1           0        1.510246   -1.296690   -0.710363
 ---------------------------------------------------------------------

 SCF Done:  E(RwB97XD) =  -899.477756645     A.U. after    1 cycles

 The electronic state is 1-A.
 Alpha  occ. eigenvalues --  -65.97797 -18.92668 -18.90941 -18.90430 -18.88722
 Alpha  occ. eigenvalues --  -18.86515 -18.83639 -10.05317 -10.04676 -10.01861
 Alpha  occ. eigenvalues --  -10.00725  -5.08750  -3.43406  -3.43289  -3.43149
 Alpha  occ. eigenvalues --   -0.83179  -0.78562  -0.76580  -0.74586  -0.71158
 Alpha  occ. eigenvalues --   -0.70495  -0.53235  -0.49191  -0.41106  -0.37037
 Alpha  occ. eigenvalues --   -0.31389  -0.29999  -0.28075  -0.26053  -0.24428
 Alpha  occ. eigenvalues --   -0.23445  -0.21775  -0.20678  -0.18761  -0.17553
 Alpha  occ. eigenvalues --   -0.15952  -0.15328  -0.12668  -0.10030  -0.09559
 Alpha  occ. eigenvalues --   -0.08257  -0.07586  -0.07001  -0.05371  -0.04763
 Alpha  occ. eigenvalues --   -0.02737  -0.02346   0.02428   0.02907
 Alpha virt. eigenvalues --    0.35541   0.38349   0.39163   0.39747   0.41835
 Alpha virt. eigenvalues --    0.42756   0.44000   0.45049   0.45864   0.47719
 Alpha virt. eigenvalues --    0.48859   0.49352   0.51167   0.51773   0.52481

 Mulliken charges:
               1
     1  Si   0.802284
     2  O   -0.592195
     3  O   -0.502023
     4  O   -0.439346
     5  O   -0.418759
     6  O   -0.767243
     7  O   -0.522872
     8  C    0.164328
     9  H   -0.133397
    10  H   -0.075389
    11  C    0.126480
    12  H   -0.017646
    13  H   -0.046825
    14  C    0.114685
    15  H   -0.036448
    16  H   -0.031031
    17  C    0.096728
    18  H   -0.030817
    19  H   -0.038859
    20  H    0.183971
    21  H    0.164375
 Sum of Mulliken charges =  -2.00000

 Dipole moment (field-independent basis, Debye):
    X=             -5.5551    Y=              2.7426    Z=             -1.3432  Tot=              6.3392
 Quadrupole moment (field-independent basis, Debye-Ang):
   XX=           -123.9066   YY=            -93.7259   ZZ=            -93.9226
   XY=              2.9781   XZ=             -1.0784   YZ=             -2.5237

  Exact polarizability:     129.136       5.883     102.762      -1.545      -2.168      94.808
 Approx polarizability:     116.060       1.862     110.004      -1.248      -1.726     104.350

                      1                      2                      3
                      A                      A                      A
 Frequencies --     62.7612                91.0238               115.1859
 Red. masses --      4.0876                 5.7552                 4.4268
 Frc consts  --      0.0095                 0.0281                 0.0346
 IR Inten    --      0.5427                 5.6867                 0.2125

                      4                      5                      6
                      A                      A                      A
 Frequencies --    135.0414               177.1532               221.9573
 Red. masses --      3.6423                 4.3506                 6.0465
 Frc consts  --      0.0391                 0.0804                 0.1755
 IR Inten    --      4.0064                14.8540                26.9753

                      7                      8                      9
                      A                      A                      A
 Frequencies --    236.2256               273.3454               332.8984
 Red. masses --      2.5309                 5.4509                 3.1878
 Frc consts  --      0.0832                 0.2400                 0.2081
 IR Inten    --      1.0182                18.1115                 0.5290

                     10                     11                     12
                      A                      A                      A
 Frequencies --    365.6171               388.1209               409.5752
 Red. masses --      4.7150                 5.7945                 8.7527
 Frc consts  --      0.3714                 0.5143                 0.8651
 IR Inten    --      7.6025                 4.4679                30.0512

                     13                     14                     15
                      A                      A                      A
 Frequencies --    429.7985               447.9638               542.4098
 Red. masses --      6.9788                 9.0292                 3.4565
 Frc consts  --      0.7596                 1.0675                 0.5992
 IR Inten    --      9.5237                17.3472                19.1132

                     16                     17                     18
                      A                      A                      A
 Frequencies --    572.2515               628.2620               651.8251
 Red. masses --      3.3857                 6.8010                 2.7915
 Frc consts  --      0.6532                 1.5816                 0.6988
 IR Inten    --     60.3700                50.5672                 0.3516

                     19                     20                     21
                      A                      A                      A
 Frequencies --    697.8261               721.6873               749.9958
 Red. masses --      3.1691                 3.0192                 2.0427
 Frc consts  --      0.9092                 0.9265                 0.6770
 IR Inten    --     91.8068               218.5201               209.0894

                     22                     23                     24
                      A                      A                      A
 Frequencies --    818.4098               852.4235               922.3815
 Red. masses --      9.1796                 2.8774                 1.7233
 Frc consts  --      3.6226                 1.2318                 0.8638
 IR Inten    --    242.7930                88.6010                15.5480

                     25                     26                     27
                      A                      A                      A
 Frequencies --    929.2079               934.6391               961.5074
 Red. masses --      2.3731                 1.8644                 1.1528
 Frc consts  --      1.2073                 0.9596                 0.6279
 IR Inten    --     11.1654                69.7067               152.0894

                     28                     29                     30
                      A                      A                      A
 Frequencies --   1114.9372              1152.3359              1160.4534
 Red. masses --      2.3739                 2.5726                 2.3355
 Frc consts  --      1.7387                 2.0127                 1.8531
 IR Inten    --     76.0484               197.7571               163.7290

                     31                     32                     33
                      A                      A                      A
 Frequencies --   1165.8707              1189.2563              1191.1083
 Red. masses --      1.7503                 2.5645                 3.2025
 Frc consts  --      1.4017                 2.1370                 2.6769
 IR Inten    --     90.9744               135.2124               177.4544

                     34                     35                     36
                      A                      A                      A
 Frequencies --   1200.2901              1251.7297              1252.7856
 Red. masses --      3.0273                 1.2843                 1.2326
 Frc consts  --      2.5697                 1.1856                 1.1398
 IR Inten    --    146.6116                30.0811                 7.5556

                     37                     38                     39
                      A                      A                      A
 Frequencies --   1257.0359              1297.1733              1309.4104
 Red. masses --      1.1202                 1.1027                 1.1839
 Frc consts  --      1.0429                 1.0932                 1.1959
 IR Inten    --     13.2295                79.8890                 2.1255

                     40                     41                     42
                      A                      A                      A
 Frequencies --   1373.2869              1378.3564              1382.7363
 Red. masses --      1.3561                 1.2794                 1.3428
 Frc consts  --      1.5069                 1.4321                 1.5126
 IR Inten    --     15.2431                16.3908                17.2984

                     43                     44                     45
                      A                      A                      A
 Frequencies --   1389.1238              1462.2646              1486.3278
 Red. masses --      1.2886                 1.1198                 1.0818
 Frc consts  --      1.4650                 1.4107                 1.4081
 IR Inten    --     37.3063                41.5964                 1.0701

                     46                     47                     48
                      A                      A                      A
 Frequencies --   1497.9462              1506.1341              2543.6265
 Red. masses --      1.0915                 1.0980                 1.0763
 Frc consts  --      1.4430                 1.4675                 4.1030
 IR Inten    --      1.8080                12.6050               652.6347

                     49                     50                     51
                      A                      A                      A
 Frequencies --   2688.5647              2824.5935              2852.1130
 Red. masses --      1.0658                 1.0794                 1.0656
 Frc consts  --      4.5391                 5.0741                 5.1070
 IR Inten    --    347.4855                93.1085               173.4861

                     52                     53                     54
                      A                      A                      A
 Frequencies --   2885.9444              2889.3907              2907.4025
 Red. masses --      1.0768                 1.0773                 1.0804
 Frc consts  --      5.2841                 5.2989                 5.3809
 IR Inten    --    594.9046               148.5930               323.8460

                     55                     56                     57
                      A                      A                      A
 Frequencies --   2963.2908              3506.7591              3617.8739
 Red. masses --      1.0883                 1.0688                 1.0667
 Frc consts  --      5.6304                 7.7440                 8.2259
 IR Inten    --    114.5542               291.8761               501.3911

 - Thermochemistry -
 -------------------
 Temperature   298.150 Kelvin.  Pressure   1.00000 Atm.
 Atom     1 has atomic number 14 and mass  27.97693

 Molecular mass:   182.02467 amu.
 Principal axes and moments of inertia in atomic units:
                           1         2         3
     Eigenvalues --   904.220242657.413602766.07757
           X            0.99997   0.00793  -0.00238
           Y           -0.00808   0.99708  -0.07589
           Z            0.00178   0.07591   0.99711
 This molecule is an asymmetric top.
 Rotational symmetry number  1.
 Warning -- assumption of classical behavior for rotation
           may cause significant error
 Rotational temperatures (Kelvin)      0.09579     0.03259     0.03131
 Rotational constants (GHZ):           1.99591     0.67913     0.65246
 Zero-point vibrational energy     414910.5 (Joules/Mol)
                                   99.16599 (Kcal/Mol)
 Warning -- explicit consideration of  16 degrees of freedom as
           vibrations may cause significant error
 Vibrational temperatures:     90.30   130.96   165.73   194.29   254.88
          (Kelvin)            319.35   339.88   393.28   478.97   526.04
                              558.42   589.29   618.38   644.52   780.41
                              823.34   903.93   937.83  1004.02  1038.35
                             1079.08  1177.51  1226.45  1327.10  1336.92
                             1344.74  1383.39  1604.15  1657.95  1669.63
                             1677.43  1711.07  1713.74  1726.95  1800.96
                             1802.48  1808.59  1866.34  1883.95  1975.85
                             1983.15  1989.45  1998.64  2103.87  2138.49
                             2155.21  2166.99  3659.71  3868.24  4063.96
                             4103.55  4152.23  4157.19  4183.10  4263.51
                             5045.44  5205.31

 Zero-point correction=                           0.158031 (Hartree/Particle)
 Thermal correction to Energy=                    0.169315
 Thermal correction to Enthalpy=                  0.170259
 Thermal correction to Gibbs Free Energy=         0.121026
 Sum of electronic and zero-point Energies=           -899.319726
 Sum of electronic and thermal Energies=              -899.308442
 Sum of electronic and thermal Enthalpies=            -899.307498
 Sum of electronic and thermal Free Energies=         -899.356730

                     E (Thermal)             CV                S
                      KCal/Mol        Cal/Mol-Kelvin    Cal/Mol-Kelvin
 Total                  106.247             42.470            103.618
 Electronic               0.000              0.000              0.000
 Translational            0.889              2.981             41.503
 Rotational               0.889              2.981             30.276
 Vibrational            104.469             36.508             31.839
 Vibration     1          0.597              1.972              4.368
 Vibration     2          0.602              1.956              3.638
 Vibration     3          0.608              1.937              3.180
 Vibration     4          0.613              1.918              2.873
 Vibration     5          0.628              1.870              2.358
 Vibration     6          0.648              1.808              1.943
 Vibration     7          0.655              1.785              1.831
 Vibration     8          0.676              1.723              1.575
 Vibration     9          0.715              1.610              1.246
 Vibration    10          0.739              1.543              1.098
 Vibration    11          0.756              1.496              1.007
 Vibration    12          0.774              1.449              0.928
 Vibration    13          0.791              1.405              0.859
 Vibration    14          0.807              1.365              0.802
 Vibration    15          0.898              1.156              0.560
 Vibration    16          0.928              1.091              0.500

                           ! Non-Optimized Parameters !
 Normal termination of Gaussian 16 at Tue Mar 26 06:55:02 2024.
