 Gaussian 16, Revision C.01,
 Gaussian 16:  ES64L-G16RevC.01  3-Jul-2019

 ---------------------------------------------
 # opt freq wb97xd/Def2TZVPP geom=connectivity
 ---------------------------------------------

 ----------------------------------------------------------
 SiOH4 attack IRC reactant optiminization back to a minimum
 ----------------------------------------------------------
 Symbolic Z-matrix:
 Charge =  0 Multiplicity = 1

 SCF Done:  E(RwB97XD) =  -823.342570623     A.U. after   13 cycles
 SCF Done:  E(RwB97XD) =  -823.358884189     A.U. after   13 cycles
 SCF Done:  E(RwB97XD) =  -823.366178008     A.U. after   12 cycles
 SCF Done:  E(RwB97XD) =  -823.368620192     A.U. after   11 cycles
 SCF Done:  E(RwB97XD) =  -823.370046288     A.U. after   11 cycles
 SCF Done:  E(RwB97XD) =  -823.370865517     A.U. after   11 cycles
 SCF Done:  E(RwB97XD) =  -823.371455244     A.U. after   12 cycles
 SCF Done:  E(RwB97XD) =  -823.371618575     A.U. after   14 cycles
 SCF Done:  E(RwB97XD) =  -823.372574107     A.U. after   12 cycles
 SCF Done:  E(RwB97XD) =  -823.373115650     A.U. after   11 cycles
 SCF Done:  E(RwB97XD) =  -823.374259036     A.U. after    9 cycles
 SCF Done:  E(RwB97XD) =  -823.374260323     A.U. after    8 cycles
 SCF Done:  E(RwB97XD) =  -823.374261450     A.U. after    8 cycles
 SCF Done:  E(RwB97XD) =  -823.374262348     A.U. after    7 cycles
 SCF Done:  E(RwB97XD) =  -823.374263745     A.U. after    8 cycles
 SCF Done:  E(RwB97XD) =  -823.374264178     A.U. after    7 cycles
 SCF Done:  E(RwB97XD) =  -823.374264290     A.U. after    7 cycles
 SCF Done:  E(RwB97XD) =  -823.374264327     A.U. after    6 cycles
 SCF Done:  E(RwB97XD) =  -823.374264340     A.U. after    6 cycles
 Optimization completed.
    -- Stationary point found.
 Normal termination of Gaussian 16 at Sun Oct 22 20:19:10 2023.

 ----------------------------------------------------------------------
 #N Geom=AllCheck Guess=TCheck SCRF=Check GenChk RwB97XD/def2TZVPP Freq
 ----------------------------------------------------------------------

 Structure from the checkpoint file:  "SiAttackIRCReactantOpt.chk"
 ----------------------------------------------------------
 SiOH4 attack IRC reactant optiminization back to a minimum
 ----------------------------------------------------------
 Charge =  0 Multiplicity = 1

                         Standard orientation:
 ---------------------------------------------------------------------
 Center     Atomic      Atomic             Coordinates (Angstroms)
 Number     Number       Type             X           Y           Z
 ---------------------------------------------------------------------
      1          6           0        2.190613    0.758082    0.701695
      2          1           0        1.444729    0.967912    1.466271
      3          1           0        3.160540    1.142015    1.031637
      4          6           0        2.279356   -0.730999    0.465837
      5          1           0        1.294930   -1.125256    0.200171
      6          1           0        2.621030   -1.226786    1.380556
      7          8           0        1.783824    1.434611   -0.478631
      8          1           0        2.316383    1.081025   -1.195505
      9          8           0        3.202658   -0.922947   -0.596896
     10          1           0        3.069192   -1.788012   -0.978313
     11         14           0       -1.606863   -0.049870   -0.012739
     12          8           0       -1.050009   -0.024026    1.528001
     13          1           0       -1.284894   -0.765700    2.080628
     14          8           0       -0.928523    1.176101   -0.808456
     15          1           0        0.030156    1.322478   -0.730847
     16          8           0       -1.242579   -1.548173   -0.570975
     17          1           0       -1.706128   -1.835888   -1.353945
     18          8           0       -3.227923    0.105488   -0.140686
     19          1           0       -3.569256    0.995456   -0.186351
 ---------------------------------------------------------------------

 SCF Done:  E(RwB97XD) =  -823.374264340     A.U. after    1 cycles

 The electronic state is 1-A.
 Alpha  occ. eigenvalues --  -66.29732 -19.26608 -19.26420 -19.24689 -19.24656
 Alpha  occ. eigenvalues --  -19.24377 -19.22617 -10.33503 -10.33296  -5.41486
 Alpha  occ. eigenvalues --   -3.75994  -3.75988  -3.75948  -1.15437  -1.13175
 Alpha  occ. eigenvalues --   -1.12821  -1.09557  -1.09350  -1.07771  -0.84882
 Alpha  occ. eigenvalues --   -0.72459  -0.67153  -0.63813  -0.61159  -0.60864
 Alpha  occ. eigenvalues --   -0.60107  -0.59216  -0.56819  -0.52514  -0.50240
 Alpha  occ. eigenvalues --   -0.48350  -0.46632  -0.45453  -0.45371  -0.44884
 Alpha  occ. eigenvalues --   -0.43409  -0.43241  -0.42517  -0.40017  -0.39427
 Alpha  occ. eigenvalues --   -0.37977  -0.37546
 Alpha virt. eigenvalues --    0.08690   0.10371   0.13100   0.13673   0.14438
 Alpha virt. eigenvalues --    0.15314   0.18577   0.18984   0.20489   0.21655
 Alpha virt. eigenvalues --    0.22229   0.22591   0.23228   0.24813   0.25121

 Mulliken charges:
               1
     1  C    0.052201
     2  H    0.086302
     3  H    0.091836
     4  C   -0.012336
     5  H    0.101004
     6  H    0.071746
     7  O   -0.360521
     8  H    0.195118
     9  O   -0.358255
    10  H    0.180665
    11  Si   0.785594
    12  O   -0.382482
    13  H    0.177136
    14  O   -0.433352
    15  H    0.231663
    16  O   -0.394755
    17  H    0.179921
    18  O   -0.394427
    19  H    0.182943
 Sum of Mulliken charges =  -0.00000

 Dipole moment (field-independent basis, Debye):
    X=              0.7274    Y=             -2.1734    Z=              0.2140  Tot=              2.3018
 Quadrupole moment (field-independent basis, Debye-Ang):
   XX=            -59.1722   YY=            -57.8578   ZZ=            -54.4556
   XY=             -3.7428   XZ=              0.1713   YZ=              1.8266

  Exact polarizability:      76.901      -0.923      68.146       1.027       0.205      66.979
 Approx polarizability:      72.868      -0.215      72.310       0.310      -0.220      72.674

                      1                      2                      3
                      A                      A                      A
 Frequencies --     32.3114                41.8189                68.3048
 Red. masses --      5.0726                 6.9187                 4.2033
 Frc consts  --      0.0031                 0.0071                 0.0116
 IR Inten    --      0.2197                 1.3761                 2.5769

                      4                      5                      6
                      A                      A                      A
 Frequencies --     85.8752                92.6487               146.5151
 Red. masses --      7.1883                 3.3900                 3.8987
 Frc consts  --      0.0312                 0.0171                 0.0493
 IR Inten    --      3.0273                 2.7407                11.8148

                      7                      8                      9
                      A                      A                      A
 Frequencies --    190.8987               215.8749               238.4608
 Red. masses --      1.6216                 2.1701                 2.3287
 Frc consts  --      0.0348                 0.0596                 0.0780
 IR Inten    --     30.2909                42.8947                51.8293

                     10                     11                     12
                      A                      A                      A
 Frequencies --    265.4062               273.6374               308.4543
 Red. masses --      1.1756                 1.1802                 2.5538
 Frc consts  --      0.0488                 0.0521                 0.1432
 IR Inten    --    142.8554                 4.5831                16.1832

                     13                     14                     15
                      A                      A                      A
 Frequencies --    338.5835               358.3856               372.6331
 Red. masses --      2.1420                 2.1755                 3.9681
 Frc consts  --      0.1447                 0.1646                 0.3246
 IR Inten    --      2.4755                23.2210                49.6814

                     16                     17                     18
                      A                      A                      A
 Frequencies --    393.7914               406.7848               488.6967
 Red. masses --      5.2826                 5.4737                 1.1523
 Frc consts  --      0.4826                 0.5337                 0.1621
 IR Inten    --     46.5225               141.0409                96.8208

                     19                     20                     21
                      A                      A                      A
 Frequencies --    546.1183               763.2520               778.2095
 Red. masses --      2.3046                 1.0913                12.4813
 Frc consts  --      0.4050                 0.3746                 4.4535
 IR Inten    --     12.1609                68.8588                 4.9688

                     22                     23                     24
                      A                      A                      A
 Frequencies --    841.3949               850.7470               858.2868
 Red. masses --      1.3360                 1.5999                 1.3674
 Frc consts  --      0.5573                 0.6823                 0.5935
 IR Inten    --    166.2856               211.9457               154.9875

                     25                     26                     27
                      A                      A                      A
 Frequencies --    898.6546               908.6130               940.8928
 Red. masses --      1.7434                 2.3782                 3.8480
 Frc consts  --      0.8295                 1.1568                 2.0071
 IR Inten    --     31.2330                19.5493               112.8188

                     28                     29                     30
                      A                      A                      A
 Frequencies --    966.1026              1016.3822              1073.7730
 Red. masses --      3.3690                 4.2219                 1.7918
 Frc consts  --      1.8527                 2.5696                 1.2172
 IR Inten    --    179.2139               263.3132                31.1874

                     31                     32                     33
                      A                      A                      A
 Frequencies --   1093.8916              1100.9995              1136.1390
 Red. masses --      1.7225                 2.2333                 2.6054
 Frc consts  --      1.2144                 1.5950                 1.9815
 IR Inten    --    185.3533                65.9136                44.6409

                     34                     35                     36
                      A                      A                      A
 Frequencies --   1205.7427              1285.9166              1307.8434
 Red. masses --      1.0992                 1.1269                 1.2520
 Frc consts  --      0.9415                 1.0979                 1.2618
 IR Inten    --     31.7838                 4.9325                60.5915

                     37                     38                     39
                      A                      A                      A
 Frequencies --   1385.1851              1436.5629              1472.4980
 Red. masses --      1.1862                 1.2378                 1.4988
 Frc consts  --      1.3410                 1.5051                 1.9148
 IR Inten    --      6.7101                37.3766                13.5474

                     40                     41                     42
                      A                      A                      A
 Frequencies --   1511.8823              1521.3840              3031.2833
 Red. masses --      1.0790                 1.0904                 1.0616
 Frc consts  --      1.4532                 1.4869                 5.7472
 IR Inten    --      6.3714                 5.5889                36.9462

                     43                     44                     45
                      A                      A                      A
 Frequencies --   3046.6235              3093.7310              3145.7922
 Red. masses --      1.0691                 1.1020                 1.0981
 Frc consts  --      5.8468                 6.2146                 6.4027
 IR Inten    --     45.9239                29.6386                 6.9080

                     46                     47                     48
                      A                      A                      A
 Frequencies --   3590.2608              3865.0067              3946.0865
 Red. masses --      1.0692                 1.0653                 1.0668
 Frc consts  --      8.1201                 9.3760                 9.7874
 IR Inten    --    964.0470                57.4367                49.9382

                     49                     50                     51
                      A                      A                      A
 Frequencies --   3975.7740              3976.9560              3979.8268
 Red. masses --      1.0660                 1.0661                 1.0665
 Frc consts  --      9.9280                 9.9350                 9.9530
 IR Inten    --    103.0361                91.8969                63.6268

 - Thermochemistry -
 -------------------
 Temperature   298.150 Kelvin.  Pressure   1.00000 Atm.
 Atom     1 has atomic number  6 and mass  12.00000

 Molecular mass:   158.02467 amu.
 Principal axes and moments of inertia in atomic units:
                           1         2         3
     Eigenvalues --   793.887982743.533842926.46007
           X            0.99997  -0.00393   0.00631
           Y            0.00383   0.99986   0.01643
           Z           -0.00637  -0.01640   0.99985
 This molecule is an asymmetric top.
 Rotational symmetry number  1.
 Warning -- assumption of classical behavior for rotation
           may cause significant error
 Rotational temperatures (Kelvin)      0.10910     0.03157     0.02960
 Rotational constants (GHZ):           2.27329     0.65782     0.61670
 Zero-point vibrational energy     388014.1 (Joules/Mol)
                                   92.73760 (Kcal/Mol)
 Warning -- explicit consideration of  19 degrees of freedom as
           vibrations may cause significant error
 Vibrational temperatures:     46.49    60.17    98.28   123.56   133.30
          (Kelvin)            210.80   274.66   310.60   343.09   381.86
                              393.70   443.80   487.15   515.64   536.14
                              566.58   585.27   703.13   785.74  1098.15
                             1119.67  1210.58  1224.04  1234.88  1292.96
                             1307.29  1353.73  1390.01  1462.35  1544.92
                             1573.87  1584.09  1634.65  1734.79  1850.15
                             1881.69  1992.97  2066.89  2118.60  2175.26
                             2188.93  4361.34  4383.41  4451.19  4526.09
                             5165.58  5560.88  5677.54  5720.25  5721.95
                             5726.08

 Zero-point correction=                           0.147787 (Hartree/Particle)
 Thermal correction to Energy=                    0.161118
 Thermal correction to Enthalpy=                  0.162062
 Thermal correction to Gibbs Free Energy=         0.107137
 Sum of electronic and zero-point Energies=           -823.226478
 Sum of electronic and thermal Energies=              -823.213147
 Sum of electronic and thermal Enthalpies=            -823.212202
 Sum of electronic and thermal Free Energies=         -823.267127

                     E (Thermal)             CV                S
                      KCal/Mol        Cal/Mol-Kelvin    Cal/Mol-Kelvin
 Total                  101.103             45.704            115.599
 Electronic               0.000              0.000              0.000
 Translational            0.889              2.981             41.082
 Rotational               0.889              2.981             30.234
 Vibrational             99.326             39.742             44.283
 Vibration     1          0.594              1.983              5.682
 Vibration     2          0.594              1.980              5.171
 Vibration     3          0.598              1.969              4.202
 Vibration     4          0.601              1.959              3.752
 Vibration     5          0.602              1.954              3.603
 Vibration     6          0.617              1.906              2.717
 Vibration     7          0.634              1.852              2.219
 Vibration     8          0.645              1.817              1.993
 Vibration     9          0.656              1.782              1.814
 Vibration    10          0.671              1.736              1.626
 Vibration    11          0.676              1.722              1.573
 Vibration    12          0.698              1.658              1.371
 Vibration    13          0.719              1.598              1.219
 Vibration    14          0.733              1.558              1.129
 Vibration    15          0.744              1.528              1.069
 Vibration    16          0.761              1.483              0.986
 Vibration    17          0.772              1.455              0.938
 Vibration    18          0.845              1.275              0.687
 Vibration    19          0.901              1.148              0.552

                           ! Non-Optimized Parameters !
 Normal termination of Gaussian 16 at Sun Oct 22 20:31:24 2023.
