 Gaussian 16, Revision C.01,
 Gaussian 16:  ES64L-G16RevC.01  3-Jul-2019

 ----------------------------------------------------------------------
 # irc=(forward,calcfc,maxpoints=100,maxcycles=100,stepsize=2) wb97xd/d
 ef2tzvpp geom=connectivity
 ----------------------------------------------------------------------

 ---------------------------------------------
 IRC calculation SiOH4 attack proper structure
 ---------------------------------------------
 Symbolic Z-matrix:
 Charge =  0 Multiplicity = 1

 SCF Done:  E(RwB97XD) =  -823.262022716     A.U. after   14 cycles
 SCF Done:  E(RwB97XD) =  -823.262030471     A.U. after   10 cycles
 SCF Done:  E(RwB97XD) =  -823.262053880     A.U. after   10 cycles
 SCF Done:  E(RwB97XD) =  -823.262093399     A.U. after   10 cycles
 SCF Done:  E(RwB97XD) =  -823.262149791     A.U. after   10 cycles
 SCF Done:  E(RwB97XD) =  -823.262223957     A.U. after   10 cycles
 SCF Done:  E(RwB97XD) =  -823.262316758     A.U. after   10 cycles
 SCF Done:  E(RwB97XD) =  -823.262428853     A.U. after   10 cycles
 SCF Done:  E(RwB97XD) =  -823.262560576     A.U. after   10 cycles
 SCF Done:  E(RwB97XD) =  -823.262711890     A.U. after   10 cycles
 SCF Done:  E(RwB97XD) =  -823.298627759     A.U. after    9 cycles
 SCF Done:  E(RwB97XD) =  -823.298838120     A.U. after    9 cycles
 SCF Done:  E(RwB97XD) =  -823.299043684     A.U. after    9 cycles
 SCF Done:  E(RwB97XD) =  -823.299244658     A.U. after    9 cycles
 SCF Done:  E(RwB97XD) =  -823.299441213     A.U. after    9 cycles
 SCF Done:  E(RwB97XD) =  -823.299633460     A.U. after    9 cycles
 SCF Done:  E(RwB97XD) =  -823.299821396     A.U. after    9 cycles
 SCF Done:  E(RwB97XD) =  -823.300004787     A.U. after    9 cycles
 SCF Done:  E(RwB97XD) =  -823.300182069     A.U. after    9 cycles
 SCF Done:  E(RwB97XD) =  -823.300351925     A.U. after    9 cycles

                          Input orientation:
 ---------------------------------------------------------------------
 Center     Atomic      Atomic             Coordinates (Angstroms)
 Number     Number       Type             X           Y           Z
 ---------------------------------------------------------------------
      1          6           0        1.554861    0.664843    0.837766
      2          1           0        0.795340    1.222200    1.399299
      3          1           0        2.468412    0.674520    1.429881
      4          6           0        1.091608   -0.791772    0.707897
      5          1           0        1.262932   -1.170741   -0.292702
      6          1           0        1.558749   -1.435897    1.447371
      7          8           0        1.849069    1.283521   -0.385177
      8          1           0        3.165407    0.002410   -0.721551
      9          8           0        3.547992   -0.836032   -0.415841
     10          1           0        3.880824   -1.274423   -1.194834
     11         14           0       -1.419229    0.072605   -0.226008
     12          8           0       -2.052462    1.190651    0.766705
     13          1           0       -2.884295    1.005220    1.195247
     14          8           0       -0.430735    0.484845   -1.317678
     15          1           0        1.034443    1.168934   -0.932637
     16          8           0       -0.369872   -0.888120    0.975221
     17          1           0       -0.637220   -1.809423    1.026854
     18          8           0       -2.553315   -1.079279   -0.509290
     19          1           0       -2.608451   -1.356812   -1.422797
 ---------------------------------------------------------------------

 Alpha  occ. eigenvalues --  -66.29827 -19.35850 -19.26767 -19.25795 -19.22987
 Alpha  occ. eigenvalues --  -19.22907 -19.16751 -10.36555 -10.33641  -5.41776
 Alpha  occ. eigenvalues --   -3.76515  -3.76230  -3.75960  -1.22425  -1.13299
 Alpha  occ. eigenvalues --   -1.11758  -1.11004  -1.09409  -0.99394  -0.86860
 Alpha  occ. eigenvalues --   -0.74179  -0.70563  -0.66386  -0.62599  -0.62199
 Alpha  occ. eigenvalues --   -0.60415  -0.59178  -0.56537  -0.52714  -0.50388
 Alpha  occ. eigenvalues --   -0.50111  -0.47985  -0.46891  -0.45901  -0.44451
 Alpha  occ. eigenvalues --   -0.43726  -0.42533  -0.40471  -0.38803  -0.36213
 Alpha  occ. eigenvalues --   -0.35499  -0.35174
 Alpha virt. eigenvalues --    0.06032   0.10475   0.11495   0.12638   0.14848
 Alpha virt. eigenvalues --    0.15811   0.16731   0.17492   0.17805   0.19388
 Alpha virt. eigenvalues --    0.21102   0.21952   0.25029   0.25532   0.26230

 Mulliken charges:
               1
     1  C    0.020693
     2  H    0.091827
     3  H    0.099089
     4  C   -0.033190
     5  H    0.125098
     6  H    0.117362
     7  O   -0.423494
     8  H    0.219006
     9  O   -0.403591
    10  H    0.166482
    11  Si   0.746444
    12  O   -0.356144
    13  H    0.174518
    14  O   -0.643116
    15  H    0.246493
    16  O   -0.110039
    17  H    0.193335
    18  O   -0.438388
    19  H    0.207615
 Sum of Mulliken charges =  -0.00000

 Dipole moment (field-independent basis, Debye):
    X=             -2.0879    Y=             -4.7474    Z=              2.1835  Tot=              5.6272
 Quadrupole moment (field-independent basis, Debye-Ang):
   XX=            -59.3373   YY=            -58.6418   ZZ=            -56.3560
   XY=             -1.3161   XZ=             -3.1785   YZ=              2.9944

  Exact polarizability:       0.000       0.000       0.000       0.000       0.000       0.000
 Approx polarizability:      78.155       1.294      73.381      -2.420      -0.067      74.433

 Normal termination of Gaussian 16 at Sun Oct 22 22:38:50 2023.
