 Gaussian 16, Revision C.01,
 Gaussian 16:  ES64L-G16RevC.01  3-Jul-2019

 ----------------------------------------------------------------------
 # irc=(reverse,calcfc,maxpoints=100,maxcycles=100,stepsize=2) wb97xd/d
 ef2tzvpp geom=connectivity
 ----------------------------------------------------------------------

 ---------------------------------------------
 IRC calculation SiOH4 attack proper structure
 ---------------------------------------------
 Symbolic Z-matrix:
 Charge =  0 Multiplicity = 1

 SCF Done:  E(RwB97XD) =  -823.262022716     A.U. after   14 cycles
 SCF Done:  E(RwB97XD) =  -823.262030523     A.U. after   10 cycles
 SCF Done:  E(RwB97XD) =  -823.262054135     A.U. after   10 cycles
 SCF Done:  E(RwB97XD) =  -823.262094038     A.U. after   10 cycles
 SCF Done:  E(RwB97XD) =  -823.262150816     A.U. after   10 cycles
 SCF Done:  E(RwB97XD) =  -823.262224965     A.U. after   10 cycles
 SCF Done:  E(RwB97XD) =  -823.262316773     A.U. after   10 cycles
 SCF Done:  E(RwB97XD) =  -823.262426262     A.U. after   10 cycles
 SCF Done:  E(RwB97XD) =  -823.262553206     A.U. after   10 cycles
 SCF Done:  E(RwB97XD) =  -823.262697168     A.U. after   10 cycles
 SCF Done:  E(RwB97XD) =  -823.340463694     A.U. after    9 cycles
 SCF Done:  E(RwB97XD) =  -823.341408188     A.U. after    9 cycles
 SCF Done:  E(RwB97XD) =  -823.342299482     A.U. after    9 cycles
 SCF Done:  E(RwB97XD) =  -823.343144557     A.U. after    9 cycles
 SCF Done:  E(RwB97XD) =  -823.343948508     A.U. after    9 cycles
 SCF Done:  E(RwB97XD) =  -823.344716009     A.U. after    9 cycles
 SCF Done:  E(RwB97XD) =  -823.345451424     A.U. after    9 cycles
 SCF Done:  E(RwB97XD) =  -823.346158542     A.U. after    9 cycles
 SCF Done:  E(RwB97XD) =  -823.346840186     A.U. after    9 cycles
 SCF Done:  E(RwB97XD) =  -823.347498129     A.U. after    9 cycles

                          Input orientation:
 ---------------------------------------------------------------------
 Center     Atomic      Atomic             Coordinates (Angstroms)
 Number     Number       Type             X           Y           Z
 ---------------------------------------------------------------------
      1          6           0        1.704395    0.658043    0.799068
      2          1           0        0.735069    0.911242    1.213762
      3          1           0        2.476957    0.986893    1.498352
      4          6           0        1.899307   -0.807812    0.460119
      5          1           0        1.123020   -1.167266   -0.200584
      6          1           0        1.979305   -1.459006    1.328686
      7          8           0        1.881602    1.306324   -0.455781
      8          1           0        2.600936    0.792310   -0.851903
      9          8           0        3.150352   -0.749988   -0.270077
     10          1           0        3.167141   -1.437597   -0.931994
     11         14           0       -1.393992   -0.018750   -0.114461
     12          8           0       -2.053040    1.257135    0.673035
     13          1           0       -2.715321    1.031185    1.322335
     14          8           0       -0.355211    0.476129   -1.222835
     15          1           0        0.509817    0.917195   -1.041818
     16          8           0       -0.686572   -0.967100    1.050205
     17          1           0       -1.114379   -1.813404    1.156129
     18          8           0       -2.573048   -1.038006   -0.642001
     19          1           0       -2.887523   -0.969977   -1.539469
 ---------------------------------------------------------------------

 Alpha  occ. eigenvalues --  -66.30025 -19.27130 -19.25827 -19.25018 -19.23895
 Alpha  occ. eigenvalues --  -19.23768 -19.22552 -10.33367 -10.33283  -5.41733
 Alpha  occ. eigenvalues --   -3.76314  -3.76209  -3.76154  -1.16932  -1.13080
 Alpha  occ. eigenvalues --   -1.12163  -1.09304  -1.08806  -1.07691  -0.84559
 Alpha  occ. eigenvalues --   -0.72679  -0.67462  -0.65052  -0.62113  -0.60551
 Alpha  occ. eigenvalues --   -0.59829  -0.58234  -0.57723  -0.51805  -0.50330
 Alpha  occ. eigenvalues --   -0.48278  -0.47066  -0.46677  -0.45478  -0.44224
 Alpha  occ. eigenvalues --   -0.43301  -0.42569  -0.41755  -0.40283  -0.38942
 Alpha  occ. eigenvalues --   -0.38423  -0.37447
 Alpha virt. eigenvalues --    0.08655   0.09988   0.13269   0.13878   0.15432
 Alpha virt. eigenvalues --    0.16628   0.18438   0.19020   0.19915   0.21264
 Alpha virt. eigenvalues --    0.21880   0.24299   0.24592   0.25847   0.27143

 Mulliken charges:
               1
     1  C    0.045999
     2  H    0.099386
     3  H    0.084743
     4  C   -0.033087
     5  H    0.105653
     6  H    0.085142
     7  O   -0.331095
     8  H    0.195100
     9  O   -0.340645
    10  H    0.175117
    11  Si   0.792280
    12  O   -0.367355
    13  H    0.175027
    14  O   -0.444454
    15  H    0.224763
    16  O   -0.408863
    17  H    0.177576
    18  O   -0.414200
    19  H    0.178914
 Sum of Mulliken charges =  -0.00000

 Dipole moment (field-independent basis, Debye):
    X=             -0.0208    Y=             -3.1315    Z=              0.0698  Tot=              3.1323
 Quadrupole moment (field-independent basis, Debye-Ang):
   XX=            -55.3170   YY=            -60.6537   ZZ=            -55.1475
   XY=             -1.9813   XZ=             -2.2311   YZ=              2.9615

  Exact polarizability:       0.000       0.000       0.000       0.000       0.000       0.000
 Approx polarizability:      74.320       1.728      71.167      -1.757      -0.197      73.513

 Normal termination of Gaussian 16 at Sun Oct 22 23:47:26 2023.
