 Gaussian 16, Revision C.01,
 Gaussian 16:  ES64L-G16RevC.01  3-Jul-2019

 ---------------------------------------------
 # opt freq wb97xd/def2tzvpp geom=connectivity
 ---------------------------------------------

 ---------------------------------------------------------------
 reactant structureopt from forward IRC of mannitol attack on Q0
 ---------------------------------------------------------------
 Symbolic Z-matrix:
 Charge =  0 Multiplicity = 1

 SCF Done:  E(RwB97XD) =  -1281.55230502     A.U. after   14 cycles
 SCF Done:  E(RwB97XD) =  -1281.55364327     A.U. after   12 cycles
 SCF Done:  E(RwB97XD) =  -1281.55441480     A.U. after   11 cycles
 SCF Done:  E(RwB97XD) =  -1281.55569149     A.U. after   12 cycles
 SCF Done:  E(RwB97XD) =  -1281.55636286     A.U. after   11 cycles
 SCF Done:  E(RwB97XD) =  -1281.55675281     A.U. after   10 cycles
 SCF Done:  E(RwB97XD) =  -1281.55699009     A.U. after   12 cycles
 SCF Done:  E(RwB97XD) =  -1281.55692252     A.U. after   10 cycles
 SCF Done:  E(RwB97XD) =  -1281.55738346     A.U. after   11 cycles
 SCF Done:  E(RwB97XD) =  -1281.55713729     A.U. after   11 cycles
 SCF Done:  E(RwB97XD) =  -1281.56418971     A.U. after    7 cycles
 SCF Done:  E(RwB97XD) =  -1281.56419027     A.U. after    6 cycles
 SCF Done:  E(RwB97XD) =  -1281.56419044     A.U. after    6 cycles
 SCF Done:  E(RwB97XD) =  -1281.56419071     A.U. after    7 cycles
 SCF Done:  E(RwB97XD) =  -1281.56419103     A.U. after    7 cycles
 SCF Done:  E(RwB97XD) =  -1281.56419125     A.U. after    7 cycles
 SCF Done:  E(RwB97XD) =  -1281.56419130     A.U. after    6 cycles
 SCF Done:  E(RwB97XD) =  -1281.56419136     A.U. after    6 cycles
 SCF Done:  E(RwB97XD) =  -1281.56419139     A.U. after    6 cycles
 Optimization completed.
    -- Stationary point found.
 Normal termination of Gaussian 16 at Sun Feb 25 23:01:42 2024.

 ----------------------------------------------------------------------
 #N Geom=AllCheck Guess=TCheck SCRF=Check GenChk RwB97XD/def2TZVPP Freq
 ----------------------------------------------------------------------

 Structure from the checkpoint file:  "ReactantOpt_MannAttQ0.chk"
 ---------------------------------------------------------------
 reactant structureopt from forward IRC of mannitol attack on Q0
 ---------------------------------------------------------------
 Charge =  0 Multiplicity = 1

                         Standard orientation:
 ---------------------------------------------------------------------
 Center     Atomic      Atomic             Coordinates (Angstroms)
 Number     Number       Type             X           Y           Z
 ---------------------------------------------------------------------
      1         14           0        2.934365   -1.056918    0.022206
      2          8           0        1.855735   -1.743364    1.000312
      3          1           0        0.907016   -1.590672    0.851776
      4          8           0        4.174363   -2.084221   -0.234263
      5          1           0        3.976480   -3.017596   -0.212493
      6          8           0        2.131377   -0.649547   -1.364335
      7          1           0        2.664865   -0.278623   -2.065535
      8          8           0        3.594373    0.333751    0.560287
      9          1           0        4.326187    0.270420    1.169187
     10          6           0       -1.577879   -0.231949    0.354059
     11          1           0       -1.700542   -0.080635    1.426135
     12          6           0       -0.919194    1.013029   -0.249626
     13          1           0       -1.692772    1.768940   -0.376974
     14          8           0       -0.732141   -1.369300    0.196256
     15          1           0       -0.591564   -1.484291   -0.748122
     16          8           0       -0.407855    0.721679   -1.538418
     17          1           0        0.453799    0.292661   -1.451902
     18          6           0       -2.940414   -0.522575   -0.270057
     19          1           0       -2.800604   -0.704699   -1.345973
     20          6           0        0.145865    1.611118    0.670854
     21          1           0        0.833716    0.823017    1.007230
     22          6           0        0.991821    2.664196   -0.043948
     23          1           0        1.552584    3.227243    0.705344
     24          1           0        1.733242    2.154758   -0.668255
     25          6           0       -3.594486   -1.747095    0.343808
     26          1           0       -2.983407   -2.634696    0.165485
     27          1           0       -3.691906   -1.593168    1.424292
     28          8           0       -3.751463    0.610441   -0.071508
     29          1           0       -4.649419    0.350373   -0.286239
     30          8           0       -0.568987    2.125431    1.777482
     31          1           0        0.049547    2.514612    2.393491
     32          8           0        0.251559    3.601567   -0.784744
     33          1           0       -0.126566    3.140702   -1.535467
     34          8           0       -4.870119   -1.867799   -0.266472
     35          1           0       -5.390760   -2.510937    0.209826
 ---------------------------------------------------------------------

 SCF Done:  E(RwB97XD) =  -1281.56419139     A.U. after    1 cycles

 The electronic state is 1-A.
 Alpha  occ. eigenvalues --  -66.31757 -19.27985 -19.27633 -19.26382 -19.26114
 Alpha  occ. eigenvalues --  -19.26022 -19.25429 -19.24847 -19.24624 -19.24414
 Alpha  occ. eigenvalues --  -19.23678 -10.34022 -10.33586 -10.33382 -10.33180
 Alpha  occ. eigenvalues --  -10.33091 -10.32125  -5.43503  -3.78053  -3.77990
 Alpha  occ. eigenvalues --   -3.77940  -1.16682  -1.15151  -1.14797  -1.13769
 Alpha  occ. eigenvalues --   -1.12441  -1.12076  -1.11765  -1.11250  -1.10899
 Alpha  occ. eigenvalues --   -1.09641  -0.88260  -0.85137  -0.80999  -0.75062
 Alpha  occ. eigenvalues --   -0.70521  -0.69276  -0.69121  -0.63691  -0.63561
 Alpha  occ. eigenvalues --   -0.62736  -0.62548  -0.61892  -0.61429  -0.60185
 Alpha  occ. eigenvalues --   -0.58007  -0.57187  -0.56618  -0.55219  -0.54112
 Alpha  occ. eigenvalues --   -0.52537  -0.51087  -0.50490  -0.49525  -0.48123
 Alpha  occ. eigenvalues --   -0.47960  -0.47575  -0.46608  -0.46460  -0.45434
 Alpha  occ. eigenvalues --   -0.45299  -0.44548  -0.44183  -0.43386  -0.42528
 Alpha  occ. eigenvalues --   -0.41729  -0.40805  -0.40407  -0.40170  -0.38022
 Alpha  occ. eigenvalues --   -0.37573  -0.35927  -0.35870  -0.33952
 Alpha virt. eigenvalues --    0.07153   0.09909   0.10547   0.11698   0.12020
 Alpha virt. eigenvalues --    0.12915   0.14145   0.14301   0.15759   0.17086
 Alpha virt. eigenvalues --    0.17732   0.18750   0.19293   0.19907   0.20064

 Mulliken charges:
               1
     1  Si   0.777680
     2  O   -0.426202
     3  H    0.241005
     4  O   -0.386478
     5  H    0.184174
     6  O   -0.401274
     7  H    0.191206
     8  O   -0.366693
     9  H    0.179068
    10  C    0.152780
    11  H    0.085253
    12  C    0.132279
    13  H    0.103569
    14  O   -0.383402
    15  H    0.179217
    16  O   -0.430426
    17  H    0.201302
    18  C    0.115726
    19  H    0.060094
    20  C    0.071561
    21  H    0.074248
    22  C    0.052731
    23  H    0.056242
    24  H    0.059431
    25  C   -0.019053
    26  H    0.082224
    27  H    0.081007
    28  O   -0.344512
    29  H    0.178560
    30  O   -0.327344
    31  H    0.156831
    32  O   -0.348058
    33  H    0.187218
    34  O   -0.340355
    35  H    0.170391
 Sum of Mulliken charges =  -0.00000

 Dipole moment (field-independent basis, Debye):
    X=              1.4654    Y=             -4.1004    Z=              0.4267  Tot=              4.3752
 Quadrupole moment (field-independent basis, Debye-Ang):
   XX=            -93.7424   YY=           -111.2760   ZZ=           -102.3657
   XY=             10.4424   XZ=             -2.7063   YZ=              3.3070

  Exact polarizability:     150.381       3.510     133.547       0.415       0.547     115.889
 Approx polarizability:     144.657      -1.875     139.332       0.898       1.048     137.693

                      1                      2                      3
                      A                      A                      A
 Frequencies --     24.0417                36.5914                47.3500
 Red. masses --      6.4880                 5.3723                 4.7500
 Frc consts  --      0.0022                 0.0042                 0.0063
 IR Inten    --      0.7822                 3.8116                 3.0048

                      4                      5                      6
                      A                      A                      A
 Frequencies --     51.9991                58.1175                69.9440
 Red. masses --      6.3328                 6.4838                 5.8682
 Frc consts  --      0.0101                 0.0129                 0.0169
 IR Inten    --      1.1877                 1.0820                 3.1546

                      7                      8                      9
                      A                      A                      A
 Frequencies --     73.7953                80.8314               112.0111
 Red. masses --      5.2166                 5.6839                 5.2892
 Frc consts  --      0.0167                 0.0219                 0.0391
 IR Inten    --      1.8662                 3.8932                 7.2796

                     10                     11                     12
                      A                      A                      A
 Frequencies --    121.5165               137.7457               154.6619
 Red. masses --      5.3823                 3.9513                 4.1598
 Frc consts  --      0.0468                 0.0442                 0.0586
 IR Inten    --      2.9261                 1.8203                 7.8323

                     13                     14                     15
                      A                      A                      A
 Frequencies --    197.2083               203.4690               212.1365
 Red. masses --      1.4765                 2.6319                 1.4851
 Frc consts  --      0.0338                 0.0642                 0.0394
 IR Inten    --      4.1945                46.3625                69.1409

                     16                     17                     18
                      A                      A                      A
 Frequencies --    228.8282               234.7816               243.9163
 Red. masses --      3.5042                 2.3072                 1.2513
 Frc consts  --      0.1081                 0.0749                 0.0439
 IR Inten    --     26.7605                54.2384                72.5757

                     19                     20                     21
                      A                      A                      A
 Frequencies --    271.8523               279.6323               282.9581
 Red. masses --      3.0596                 2.7857                 1.8223
 Frc consts  --      0.1332                 0.1283                 0.0860
 IR Inten    --     27.4891                25.1757                19.3634

                     22                     23                     24
                      A                      A                      A
 Frequencies --    309.5861               315.6122               341.4330
 Red. masses --      3.2404                 3.2980                 3.2160
 Frc consts  --      0.1830                 0.1936                 0.2209
 IR Inten    --     14.7716                12.7029                18.4970

                     25                     26                     27
                      A                      A                      A
 Frequencies --    362.6972               374.2125               390.0013
 Red. masses --      1.9063                 3.5631                 4.4749
 Frc consts  --      0.1478                 0.2940                 0.4010
 IR Inten    --     31.1743                32.3621                 8.7476

                     28                     29                     30
                      A                      A                      A
 Frequencies --    397.6291               407.2836               416.5663
 Red. masses --      3.4215                 3.1289                 1.3150
 Frc consts  --      0.3187                 0.3058                 0.1344
 IR Inten    --     27.5487                97.6233               147.6942

                     31                     32                     33
                      A                      A                      A
 Frequencies --    449.3273               461.7065               466.6649
 Red. masses --      1.4854                 2.1753                 1.2243
 Frc consts  --      0.1767                 0.2732                 0.1571
 IR Inten    --     48.6840                66.5214               212.0002

                     34                     35                     36
                      A                      A                      A
 Frequencies --    509.6232               516.5486               593.1655
 Red. masses --      4.4361                 3.0370                 3.0298
 Frc consts  --      0.6788                 0.4774                 0.6281
 IR Inten    --      4.9430                74.1933                45.9746

                     37                     38                     39
                      A                      A                      A
 Frequencies --    650.9497               722.5906               760.0282
 Red. masses --      3.9447                 1.0897                 1.1681
 Frc consts  --      0.9848                 0.3352                 0.3976
 IR Inten    --     11.7111                19.9859                59.9720

                     40                     41                     42
                      A                      A                      A
 Frequencies --    775.6510               776.7393               828.8480
 Red. masses --      6.4987                 3.9513                 1.5338
 Frc consts  --      2.3036                 1.4045                 0.6208
 IR Inten    --      6.4042                 6.1697               156.8057

                     43                     44                     45
                      A                      A                      A
 Frequencies --    840.1647               875.4202               901.7202
 Red. masses --      1.4620                 2.6905                 1.6150
 Frc consts  --      0.6080                 1.2148                 0.7737
 IR Inten    --    233.6515                 4.7546               141.2300

                     46                     47                     48
                      A                      A                      A
 Frequencies --    915.0362               922.0064               939.5924
 Red. masses --      2.1496                 3.5166                 2.4306
 Frc consts  --      1.0604                 1.7613                 1.2643
 IR Inten    --      8.9624                58.4772                68.1250

                     49                     50                     51
                      A                      A                      A
 Frequencies --    955.2853               963.0379              1010.5493
 Red. masses --      3.1609                 2.3094                 2.4251
 Frc consts  --      1.6995                 1.2619                 1.4592
 IR Inten    --     96.2114               181.1702               310.1335

                     52                     53                     54
                      A                      A                      A
 Frequencies --   1044.6745              1060.4368              1063.1287
 Red. masses --      2.5157                 2.3663                 1.8919
 Frc consts  --      1.6176                 1.5678                 1.2599
 IR Inten    --     82.9372                10.5826               221.6620

                     55                     56                     57
                      A                      A                      A
 Frequencies --   1092.3985              1104.3748              1111.0694
 Red. masses --      3.4643                 2.1701                 2.9014
 Frc consts  --      2.4357                 1.5594                 2.1103
 IR Inten    --     25.3501                80.2117               101.5336

                     58                     59                     60
                      A                      A                      A
 Frequencies --   1122.6540              1146.8945              1149.1395
 Red. masses --      2.7737                 2.5132                 3.7477
 Frc consts  --      2.0597                 1.9477                 2.9158
 IR Inten    --      2.4532                58.3348               108.4143

                     61                     62                     63
                      A                      A                      A
 Frequencies --   1155.7361              1214.0912              1229.0936
 Red. masses --      2.1873                 1.1881                 1.2219
 Frc consts  --      1.7213                 1.0319                 1.0876
 IR Inten    --     44.7893                 7.8007                17.2795

                     64                     65                     66
                      A                      A                      A
 Frequencies --   1247.1196              1255.4074              1278.2505
 Red. masses --      1.2624                 1.3410                 1.1669
 Frc consts  --      1.1568                 1.2452                 1.1234
 IR Inten    --     11.9072                24.1900                 9.2604

                     67                     68                     69
                      A                      A                      A
 Frequencies --   1313.0983              1326.3411              1347.5868
 Red. masses --      1.2905                 1.2161                 1.2720
 Frc consts  --      1.3110                 1.2604                 1.3610
 IR Inten    --     40.6625                12.6334                15.2171

                     70                     71                     72
                      A                      A                      A
 Frequencies --   1365.7482              1388.2853              1397.8905
 Red. masses --      1.3763                 1.3187                 1.3482
 Frc consts  --      1.5125                 1.4974                 1.5522
 IR Inten    --     38.3233                22.0480                 8.9368

                     73                     74                     75
                      A                      A                      A
 Frequencies --   1407.7852              1423.2004              1426.4138
 Red. masses --      1.2627                 1.3068                 1.2921
 Frc consts  --      1.4744                 1.5595                 1.5490
 IR Inten    --     25.1424                38.2455                13.2773

                     76                     77                     78
                      A                      A                      A
 Frequencies --   1446.0706              1450.0710              1471.2550
 Red. masses --      1.3431                 1.3289                 1.4410
 Frc consts  --      1.6548                 1.6464                 1.8378
 IR Inten    --     19.0129                 8.8434                32.1530

                     79                     80                     81
                      A                      A                      A
 Frequencies --   1475.2881              1501.8914              1517.9724
 Red. masses --      1.7689                 1.1018                 1.0863
 Frc consts  --      2.2684                 1.4643                 1.4748
 IR Inten    --     11.9965                 2.0355                 5.7648

                     82                     83                     84
                      A                      A                      A
 Frequencies --   2987.6080              3010.4884              3025.9825
 Red. masses --      1.0822                 1.0796                 1.0608
 Frc consts  --      5.6913                 5.7648                 5.7229
 IR Inten    --     24.9885                20.4427                38.9630

                     85                     86                     87
                      A                      A                      A
 Frequencies --   3040.9199              3090.0423              3090.2782
 Red. masses --      1.0653                 1.1032                 1.1016
 Frc consts  --      5.8040                 6.2061                 6.1982
 IR Inten    --     57.5757                24.8591                39.9785

                     88                     89                     90
                      A                      A                      A
 Frequencies --   3120.4896              3126.8485              3597.3128
 Red. masses --      1.0869                 1.0860                 1.0694
 Frc consts  --      6.2359                 6.2558                 8.1538
 IR Inten    --      8.7894                 6.2932               926.8018

                     91                     92                     93
                      A                      A                      A
 Frequencies --   3732.1734              3841.1168              3881.4474
 Red. masses --      1.0675                 1.0650                 1.0661
 Frc consts  --      8.7605                 9.2581                 9.4629
 IR Inten    --    477.2485                39.3394                45.3920

                     94                     95                     96
                      A                      A                      A
 Frequencies --   3883.1827              3929.4874              3946.3294
 Red. masses --      1.0656                 1.0665                 1.0668
 Frc consts  --      9.4668                 9.7026                 9.7887
 IR Inten    --     67.2192                34.2665                56.8110

                     97                     98                     99
                      A                      A                      A
 Frequencies --   3952.4715              3977.4472              3981.3654
 Red. masses --      1.0660                 1.0662                 1.0666
 Frc consts  --      9.8114                 9.9383                 9.9613
 IR Inten    --     91.5119               102.5992                99.9395

 - Thermochemistry -
 -------------------
 Temperature   298.150 Kelvin.  Pressure   1.00000 Atm.
 Atom     1 has atomic number 14 and mass  27.97693

 Molecular mass:   278.06693 amu.
 Principal axes and moments of inertia in atomic units:
                           1         2         3
     Eigenvalues --  3427.271617539.330669629.51787
           X            0.99982   0.01880  -0.00183
           Y           -0.01879   0.99982   0.00088
           Z            0.00185  -0.00085   1.00000
 This molecule is an asymmetric top.
 Rotational symmetry number  1.
 Warning -- assumption of classical behavior for rotation
           may cause significant error
 Rotational temperatures (Kelvin)      0.02527     0.01149     0.00899
 Rotational constants (GHZ):           0.52658     0.23938     0.18742
 Zero-point vibrational energy     741812.8 (Joules/Mol)
                                  177.29753 (Kcal/Mol)
 Warning -- explicit consideration of  36 degrees of freedom as
           vibrations may cause significant error
 Vibrational temperatures:     34.59    52.65    68.13    74.82    83.62
          (Kelvin)            100.63   106.17   116.30   161.16   174.84
                              198.19   222.52   283.74   292.75   305.22
                              329.23   337.80   350.94   391.13   402.33
                              407.11   445.43   454.10   491.25   521.84
                              538.41   561.12   572.10   585.99   599.35
                              646.48   664.29   671.43   733.23   743.20
                              853.43   936.57  1039.65  1093.51  1115.99
                             1117.55  1192.53  1208.81  1259.53  1297.37
                             1316.53  1326.56  1351.86  1374.44  1385.60
                             1453.96  1503.05  1525.73  1529.61  1571.72
                             1588.95  1598.58  1615.25  1650.13  1653.36
                             1662.85  1746.81  1768.39  1794.33  1806.25
                             1839.12  1889.26  1908.31  1938.88  1965.01
                             1997.43  2011.25  2025.49  2047.67  2052.29
                             2080.57  2086.33  2116.81  2122.61  2160.89
                             2184.02  4298.50  4331.42  4353.71  4375.21
                             4445.88  4446.22  4489.69  4498.84  5175.73
                             5369.77  5526.51  5584.54  5587.03  5653.66
                             5677.89  5686.72  5722.66  5728.30

 Zero-point correction=                           0.282542 (Hartree/Particle)
 Thermal correction to Energy=                    0.305097
 Thermal correction to Enthalpy=                  0.306041
 Thermal correction to Gibbs Free Energy=         0.229812
 Sum of electronic and zero-point Energies=          -1281.281650
 Sum of electronic and thermal Energies=             -1281.259094
 Sum of electronic and thermal Enthalpies=           -1281.258150
 Sum of electronic and thermal Free Energies=        -1281.334379

                     E (Thermal)             CV                S
                      KCal/Mol        Cal/Mol-Kelvin    Cal/Mol-Kelvin
 Total                  191.451             80.608            160.438
 Electronic               0.000              0.000              0.000
 Translational            0.889              2.981             42.766
 Rotational               0.889              2.981             33.875
 Vibrational            189.674             74.646             83.797
 Vibration     1          0.593              1.985              6.269
 Vibration     2          0.594              1.982              5.436
 Vibration     3          0.595              1.979              4.925
 Vibration     4          0.596              1.977              4.740
 Vibration     5          0.596              1.974              4.520
 Vibration     6          0.598              1.968              4.155
 Vibration     7          0.599              1.966              4.049
 Vibration     8          0.600              1.962              3.871
 Vibration     9          0.607              1.940              3.234
 Vibration    10          0.609              1.931              3.076
 Vibration    11          0.614              1.916              2.835
 Vibration    12          0.620              1.897              2.614
 Vibration    13          0.637              1.844              2.159
 Vibration    14          0.639              1.835              2.101
 Vibration    15          0.643              1.822              2.025
 Vibration    16          0.652              1.797              1.888
 Vibration    17          0.655              1.788              1.842
 Vibration    18          0.659              1.773              1.774
 Vibration    19          0.675              1.725              1.584
 Vibration    20          0.680              1.711              1.536
 Vibration    21          0.682              1.705              1.516
 Vibration    22          0.699              1.655              1.365
 Vibration    23          0.703              1.644              1.333
 Vibration    24          0.721              1.593              1.205
 Vibration    25          0.737              1.549              1.111
 Vibration    26          0.745              1.525              1.062
 Vibration    27          0.758              1.492              1.000
 Vibration    28          0.764              1.475              0.971
 Vibration    29          0.772              1.454              0.936
 Vibration    30          0.780              1.434              0.904
 Vibration    31          0.808              1.362              0.798
 Vibration    32          0.819              1.335              0.761
 Vibration    33          0.824              1.324              0.747
 Vibration    34          0.865              1.229              0.634
 Vibration    35          0.872              1.213              0.618
 Vibration    36          0.951              1.046              0.462

                           ! Non-Optimized Parameters !
 Normal termination of Gaussian 16 at Mon Feb 26 05:38:13 2024.
