 Gaussian 16, Revision C.01,
 Gaussian 16:  ES64L-G16RevC.01  3-Jul-2019

 ---------------------------------------------
 # opt freq wb97xd/def2tzvpp geom=connectivity
 ---------------------------------------------

 --------------------------------------------------
 product opt from reverse opt Mannitol attack on Q0
 --------------------------------------------------
 Symbolic Z-matrix:
 Charge =  0 Multiplicity = 1

 SCF Done:  E(RwB97XD) =  -1281.49603559     A.U. after   14 cycles
 SCF Done:  E(RwB97XD) =  -1281.49108708     A.U. after   12 cycles
 SCF Done:  E(RwB97XD) =  -1281.49530842     A.U. after   12 cycles
 SCF Done:  E(RwB97XD) =  -1281.49620855     A.U. after   10 cycles
 SCF Done:  E(RwB97XD) =  -1281.49497598     A.U. after   12 cycles
 SCF Done:  E(RwB97XD) =  -1281.49634507     A.U. after   11 cycles
 SCF Done:  E(RwB97XD) =  -1281.49651218     A.U. after   10 cycles
 SCF Done:  E(RwB97XD) =  -1281.49680746     A.U. after   11 cycles
 SCF Done:  E(RwB97XD) =  -1281.49723627     A.U. after   11 cycles
 SCF Done:  E(RwB97XD) =  -1281.49705783     A.U. after   12 cycles
 SCF Done:  E(RwB97XD) =  -1281.50646445     A.U. after    8 cycles
 SCF Done:  E(RwB97XD) =  -1281.50647096     A.U. after    8 cycles
 SCF Done:  E(RwB97XD) =  -1281.50647443     A.U. after    8 cycles
 SCF Done:  E(RwB97XD) =  -1281.50647577     A.U. after    8 cycles
 SCF Done:  E(RwB97XD) =  -1281.50647716     A.U. after    8 cycles
 SCF Done:  E(RwB97XD) =  -1281.50647745     A.U. after    7 cycles
 SCF Done:  E(RwB97XD) =  -1281.50647756     A.U. after    6 cycles
 SCF Done:  E(RwB97XD) =  -1281.50647764     A.U. after    6 cycles
 SCF Done:  E(RwB97XD) =  -1281.50647767     A.U. after    6 cycles
 Optimization completed.
    -- Stationary point found.
 Normal termination of Gaussian 16 at Sat Feb 24 22:23:00 2024.

 ----------------------------------------------------------------------
 #N Geom=AllCheck Guess=TCheck SCRF=Check GenChk RwB97XD/def2TZVPP Freq
 ----------------------------------------------------------------------

 Structure from the checkpoint file:  "ProductOpt_MannAttQ0.chk"
 --------------------------------------------------
 product opt from reverse opt Mannitol attack on Q0
 --------------------------------------------------
 Charge =  0 Multiplicity = 1

                         Standard orientation:
 ---------------------------------------------------------------------
 Center     Atomic      Atomic             Coordinates (Angstroms)
 Number     Number       Type             X           Y           Z
 ---------------------------------------------------------------------
      1         14           0        0.797952   -2.109199   -0.238260
      2          8           0        0.293735   -3.488418   -0.928933
      3          1           0       -0.151833   -4.123135   -0.372469
      4          8           0        3.252462   -0.981387    1.474526
      5          1           0        4.106705   -1.390013    1.599833
      6          8           0        1.948141   -1.307824   -0.893079
      7          1           0        3.046486   -1.047762    0.518547
      8          8           0        0.695038   -2.205597    1.379539
      9          1           0        1.489042   -1.845814    1.803620
     10          6           0       -0.953235    0.198071    0.081843
     11          1           0       -0.777523    0.014243    1.138729
     12          6           0        0.035465    1.251523   -0.485739
     13          1           0       -0.521534    2.173600   -0.644952
     14          8           0       -0.700829   -1.071057   -0.609580
     15          1           0       -0.564367   -0.786336   -1.536368
     16          8           0        0.514315    0.820922   -1.743858
     17          1           0        1.224855    0.155561   -1.581210
     18          6           0       -2.418356    0.528456   -0.172460
     19          1           0       -2.579884    0.579201   -1.260667
     20          6           0        1.156394    1.574495    0.501857
     21          1           0        1.601707    0.650115    0.880594
     22          6           0        2.281208    2.366749   -0.160329
     23          1           0        2.911788    2.788054    0.624884
     24          1           0        2.903593    1.671941   -0.734286
     25          6           0       -3.353619   -0.522322    0.402859
     26          1           0       -3.187510   -1.488422   -0.080460
     27          1           0       -3.157741   -0.620218    1.476288
     28          8           0       -2.660768    1.776083    0.417106
     29          1           0       -3.612277    1.899274    0.430363
     30          8           0        0.514995    2.268740    1.554345
     31          1           0        1.129612    2.358938    2.280833
     32          8           0        1.845988    3.443226   -0.955080
     33          1           0        1.480203    3.077700   -1.761697
     34          8           0       -4.666558   -0.048288    0.165397
     35          1           0       -5.291950   -0.571160    0.662807
 ---------------------------------------------------------------------

 SCF Done:  E(RwB97XD) =  -1281.50647767     A.U. after    1 cycles

 The electronic state is 1-A.
 Alpha  occ. eigenvalues --  -66.30675 -19.35861 -19.27886 -19.26545 -19.26453
 Alpha  occ. eigenvalues --  -19.26325 -19.25716 -19.25034 -19.24573 -19.23772
 Alpha  occ. eigenvalues --  -19.18624 -10.37870 -10.36078 -10.35216 -10.34934
 Alpha  occ. eigenvalues --  -10.33258 -10.32085  -5.42607  -3.77364  -3.77039
 Alpha  occ. eigenvalues --   -3.76809  -1.23484  -1.16706  -1.14703  -1.13919
 Alpha  occ. eigenvalues --   -1.13351  -1.12949  -1.11431  -1.11380  -1.10355
 Alpha  occ. eigenvalues --   -1.01069  -0.91134  -0.86171  -0.82263  -0.76527
 Alpha  occ. eigenvalues --   -0.73693  -0.70165  -0.69219  -0.66122  -0.65005
 Alpha  occ. eigenvalues --   -0.63567  -0.63134  -0.62169  -0.61413  -0.59714
 Alpha  occ. eigenvalues --   -0.58842  -0.58603  -0.57363  -0.56077  -0.54381
 Alpha  occ. eigenvalues --   -0.53794  -0.51595  -0.51065  -0.50422  -0.49606
 Alpha  occ. eigenvalues --   -0.48449  -0.48210  -0.47293  -0.46762  -0.45570
 Alpha  occ. eigenvalues --   -0.44846  -0.43937  -0.43389  -0.42958  -0.41645
 Alpha  occ. eigenvalues --   -0.41473  -0.40495  -0.39470  -0.38932  -0.38406
 Alpha  occ. eigenvalues --   -0.37761  -0.37017  -0.36677  -0.33890
 Alpha virt. eigenvalues --    0.06854   0.08598   0.10008   0.11793   0.12330
 Alpha virt. eigenvalues --    0.12640   0.13517   0.13854   0.15598   0.16295
 Alpha virt. eigenvalues --    0.16938   0.17739   0.18198   0.18344   0.19316

 Mulliken charges:
               1
     1  Si   0.741262
     2  O   -0.383595
     3  H    0.178656
     4  O   -0.418208
     5  H    0.173464
     6  O   -0.667696
     7  H    0.243410
     8  O   -0.431487
     9  H    0.235367
    10  C    0.070463
    11  H    0.100156
    12  C    0.162229
    13  H    0.111483
    14  O   -0.142642
    15  H    0.209415
    16  O   -0.438025
    17  H    0.237297
    18  C    0.124721
    19  H    0.060959
    20  C    0.081255
    21  H    0.069280
    22  C    0.035399
    23  H    0.057718
    24  H    0.075491
    25  C   -0.026204
    26  H    0.084303
    27  H    0.090543
    28  O   -0.320710
    29  H    0.179324
    30  O   -0.330730
    31  H    0.160713
    32  O   -0.346521
    33  H    0.185255
    34  O   -0.336581
    35  H    0.174237
 Sum of Mulliken charges =  -0.00000

 Dipole moment (field-independent basis, Debye):
    X=             -3.2222    Y=             -3.7364    Z=              2.3516  Tot=              5.4656
 Quadrupole moment (field-independent basis, Debye-Ang):
   XX=            -89.5156   YY=           -116.3480   ZZ=           -107.8725
   XY=              4.6165   XZ=              4.1259   YZ=             -3.2974

  Exact polarizability:     146.617       3.482     137.933       0.971       0.521     118.153
 Approx polarizability:     144.090       0.029     142.926       0.699       0.896     142.313

                      1                      2                      3
                      A                      A                      A
 Frequencies --     22.2760                40.8943                52.4379
 Red. masses --      6.3175                 6.2347                 4.7542
 Frc consts  --      0.0018                 0.0061                 0.0077
 IR Inten    --      0.2160                 3.2140                 3.4073

                      4                      5                      6
                      A                      A                      A
 Frequencies --     67.3333                81.3156                85.3783
 Red. masses --      5.8985                 6.1165                 5.0100
 Frc consts  --      0.0158                 0.0238                 0.0215
 IR Inten    --      0.6053                 1.1308                 2.7370

                      7                      8                      9
                      A                      A                      A
 Frequencies --     90.5631               105.4314               126.6710
 Red. masses --      5.1779                 4.7221                 4.0846
 Frc consts  --      0.0250                 0.0309                 0.0386
 IR Inten    --      1.8363                 4.8114                 2.6971

                     10                     11                     12
                      A                      A                      A
 Frequencies --    148.5754               162.5073               186.4999
 Red. masses --      5.6626                 5.3308                 4.4696
 Frc consts  --      0.0736                 0.0829                 0.0916
 IR Inten    --      6.2415                14.6283                 7.9511

                     13                     14                     15
                      A                      A                      A
 Frequencies --    200.5926               215.1815               229.3760
 Red. masses --      4.6906                 3.5464                 3.5369
 Frc consts  --      0.1112                 0.0967                 0.1096
 IR Inten    --      0.8527                20.3290                11.1530

                     16                     17                     18
                      A                      A                      A
 Frequencies --    240.9952               241.8378               246.1074
 Red. masses --      3.4082                 1.5178                 1.3484
 Frc consts  --      0.1166                 0.0523                 0.0481
 IR Inten    --      9.7036                74.2058                55.7872

                     19                     20                     21
                      A                      A                      A
 Frequencies --    254.3310               265.0126               282.7791
 Red. masses --      2.7030                 1.2196                 4.0765
 Frc consts  --      0.1030                 0.0505                 0.1921
 IR Inten    --     36.9760               118.2458                 8.4670

                     22                     23                     24
                      A                      A                      A
 Frequencies --    301.0172               320.7694               333.8039
 Red. masses --      2.0471                 2.8697                 3.6080
 Frc consts  --      0.1093                 0.1740                 0.2369
 IR Inten    --     17.6111                51.2818                28.5038

                     25                     26                     27
                      A                      A                      A
 Frequencies --    347.6124               366.0898               380.2613
 Red. masses --      3.5342                 4.4666                 2.9704
 Frc consts  --      0.2516                 0.3527                 0.2531
 IR Inten    --     30.6834                23.9236                 4.2784

                     28                     29                     30
                      A                      A                      A
 Frequencies --    403.1610               418.7634               441.1996
 Red. masses --      2.0562                 1.8622                 1.8199
 Frc consts  --      0.1969                 0.1924                 0.2087
 IR Inten    --    130.6894                38.1654                46.9678

                     31                     32                     33
                      A                      A                      A
 Frequencies --    450.1626               463.2827               478.6008
 Red. masses --      1.7121                 1.3008                 3.1219
 Frc consts  --      0.2044                 0.1645                 0.4213
 IR Inten    --    167.6391               188.7489                28.2501

                     34                     35                     36
                      A                      A                      A
 Frequencies --    514.6938               552.1349               612.1132
 Red. masses --      4.2636                 3.8646                 3.5505
 Frc consts  --      0.6655                 0.6941                 0.7838
 IR Inten    --      9.1094                18.7344                35.0909

                     37                     38                     39
                      A                      A                      A
 Frequencies --    647.1526               670.3945               698.5621
 Red. masses --      3.5844                 1.1263                 2.1678
 Frc consts  --      0.8845                 0.2982                 0.6233
 IR Inten    --     31.3482               167.4999               108.6638

                     40                     41                     42
                      A                      A                      A
 Frequencies --    790.9592               801.8925               821.1038
 Red. masses --      2.0583                 2.9361                 1.2516
 Frc consts  --      0.7587                 1.1124                 0.4972
 IR Inten    --     31.9536               286.0682               204.2140

                     43                     44                     45
                      A                      A                      A
 Frequencies --    854.7504               876.1768               916.2140
 Red. masses --      1.6098                 2.8634                 2.3221
 Frc consts  --      0.6930                 1.2951                 1.1485
 IR Inten    --     74.1532                 6.0091                27.6427

                     46                     47                     48
                      A                      A                      A
 Frequencies --    925.4910               955.0779               960.4920
 Red. masses --      3.0682                 2.4467                 5.6963
 Frc consts  --      1.5484                 1.3150                 3.0962
 IR Inten    --     70.5302                63.5768               217.3141

                     49                     50                     51
                      A                      A                      A
 Frequencies --   1012.2442              1044.0619              1061.4118
 Red. masses --      2.0072                 1.6836                 2.1719
 Frc consts  --      1.2118                 1.0813                 1.4416
 IR Inten    --     41.0742                76.6300                55.2792

                     52                     53                     54
                      A                      A                      A
 Frequencies --   1070.2295              1071.9634              1109.4655
 Red. masses --      1.5638                 1.9271                 2.4516
 Frc consts  --      1.0553                 1.3047                 1.7780
 IR Inten    --     20.4536                21.0920               109.1581

                     55                     56                     57
                      A                      A                      A
 Frequencies --   1112.0517              1121.5913              1140.1736
 Red. masses --      4.1510                 2.6567                 3.3275
 Frc consts  --      3.0245                 1.9691                 2.5486
 IR Inten    --    124.7178                 1.1794                51.6882

                     58                     59                     60
                      A                      A                      A
 Frequencies --   1152.6732              1166.8722              1186.7271
 Red. masses --      2.5550                 2.6335                 6.3264
 Frc consts  --      2.0001                 2.1126                 5.2494
 IR Inten    --     66.8328                47.0547               280.1089

                     61                     62                     63
                      A                      A                      A
 Frequencies --   1217.6457              1237.4136              1254.8142
 Red. masses --      1.1409                 1.3169                 1.2316
 Frc consts  --      0.9966                 1.1881                 1.1426
 IR Inten    --      9.0109                12.6686                40.5910

                     64                     65                     66
                      A                      A                      A
 Frequencies --   1257.8153              1285.0087              1308.0470
 Red. masses --      1.2517                 1.1673                 1.1906
 Frc consts  --      1.1668                 1.1357                 1.2002
 IR Inten    --      6.2444                18.1219                40.6988

                     67                     68                     69
                      A                      A                      A
 Frequencies --   1329.5767              1348.1475              1372.4649
 Red. masses --      1.2087                 1.3079                 1.3171
 Frc consts  --      1.2589                 1.4006                 1.4618
 IR Inten    --      6.7439                11.7589                36.4351

                     70                     71                     72
                      A                      A                      A
 Frequencies --   1389.4109              1403.7216              1413.2976
 Red. masses --      1.3173                 1.3131                 1.2719
 Frc consts  --      1.4983                 1.5244                 1.4968
 IR Inten    --      9.2520                13.9197                17.0918

                     73                     74                     75
                      A                      A                      A
 Frequencies --   1420.4775              1448.4971              1459.9831
 Red. masses --      1.2922                 1.4343                 1.4145
 Frc consts  --      1.5362                 1.7730                 1.7765
 IR Inten    --     30.8869                 7.6699                28.5232

                     76                     77                     78
                      A                      A                      A
 Frequencies --   1460.5732              1483.3664              1503.0160
 Red. masses --      1.2509                 1.6983                 1.0888
 Frc consts  --      1.5722                 2.2017                 1.4492
 IR Inten    --     70.8262                 2.6594                 3.0524

                     79                     80                     81
                      A                      A                      A
 Frequencies --   1508.8646              1519.9099              1659.2465
 Red. masses --      1.2030                 1.0859                 1.0720
 Frc consts  --      1.6137                 1.4780                 1.7389
 IR Inten    --     38.1168                 4.6322                69.5280

                     82                     83                     84
                      A                      A                      A
 Frequencies --   2974.8178              3027.7025              3036.0634
 Red. masses --      1.0824                 1.0587                 1.0647
 Frc consts  --      5.6435                 5.7181                 5.7820
 IR Inten    --     29.9551                34.0802                29.5635

                     85                     86                     87
                      A                      A                      A
 Frequencies --   3081.3441              3085.9175              3097.8908
 Red. masses --      1.0826                 1.1055                 1.1006
 Frc consts  --      6.0564                 6.2027                 6.2230
 IR Inten    --     10.9563                29.8170                27.8318

                     88                     89                     90
                      A                      A                      A
 Frequencies --   3127.2425              3154.4244              3342.5903
 Red. masses --      1.0863                 1.0882                 1.0708
 Frc consts  --      6.2590                 6.3796                 7.0487
 IR Inten    --      8.7044                 1.5775               610.6142

                     91                     92                     93
                      A                      A                      A
 Frequencies --   3479.3643              3567.1981              3705.8391
 Red. masses --      1.0643                 1.0632                 1.0666
 Frc consts  --      7.5909                 7.9709                 8.6300
 IR Inten    --    370.2547               169.8891               436.3831

                     94                     95                     96
                      A                      A                      A
 Frequencies --   3877.0461              3891.7905              3928.6507
 Red. masses --      1.0657                 1.0661                 1.0665
 Frc consts  --      9.4379                 9.5134                 9.6987
 IR Inten    --     84.7181                39.9322                41.2735

                     97                     98                     99
                      A                      A                      A
 Frequencies --   3944.7947              3964.8719              3976.4894
 Red. masses --      1.0669                 1.0674                 1.0664
 Frc consts  --      9.7816                 9.8865                 9.9354
 IR Inten    --     64.6776                72.9997               106.2213

 - Thermochemistry -
 -------------------
 Temperature   298.150 Kelvin.  Pressure   1.00000 Atm.
 Atom     1 has atomic number 14 and mass  27.97693

 Molecular mass:   278.06693 amu.
 Principal axes and moments of inertia in atomic units:
                           1         2         3
     Eigenvalues --  4342.588855168.774177795.28225
           X            0.99887   0.04740   0.00416
           Y           -0.04737   0.99886  -0.00664
           Z           -0.00447   0.00644   0.99997
 This molecule is an asymmetric top.
 Rotational symmetry number  1.
 Warning -- assumption of classical behavior for rotation
           may cause significant error
 Rotational temperatures (Kelvin)      0.01995     0.01676     0.01111
 Rotational constants (GHZ):           0.41559     0.34916     0.23152
 Zero-point vibrational energy     744333.4 (Joules/Mol)
                                  177.89996 (Kcal/Mol)
 Warning -- explicit consideration of  36 degrees of freedom as
           vibrations may cause significant error
 Vibrational temperatures:     32.05    58.84    75.45    96.88   117.00
          (Kelvin)            122.84   130.30   151.69   182.25   213.77
                              233.81   268.33   288.61   309.60   330.02
                              346.74   347.95   354.09   365.93   381.29
                              406.86   433.10   461.52   480.27   500.14
                              526.72   547.11   580.06   602.51   634.79
                              647.68   666.56   688.60   740.53   794.40
                              880.69   931.11   964.55  1005.08  1138.01
                             1153.74  1181.39  1229.80  1260.62  1318.23
                             1331.58  1374.14  1381.93  1456.39  1502.17
                             1527.13  1539.82  1542.32  1596.27  1599.99
                             1613.72  1640.46  1658.44  1678.87  1707.44
                             1751.92  1780.36  1805.40  1809.72  1848.84
                             1881.99  1912.96  1939.68  1974.67  1999.05
                             2019.64  2033.42  2043.75  2084.06  2100.59
                             2101.44  2134.23  2162.50  2170.92  2186.81
                             2387.29  4280.10  4356.19  4368.22  4433.37
                             4439.95  4457.17  4499.40  4538.51  4809.24
                             5006.03  5132.40  5331.88  5578.20  5599.42
                             5652.45  5675.68  5704.57  5721.28

 Zero-point correction=                           0.283502 (Hartree/Particle)
 Thermal correction to Energy=                    0.305550
 Thermal correction to Enthalpy=                  0.306494
 Thermal correction to Gibbs Free Energy=         0.232572
 Sum of electronic and zero-point Energies=          -1281.222976
 Sum of electronic and thermal Energies=             -1281.200928
 Sum of electronic and thermal Enthalpies=           -1281.199983
 Sum of electronic and thermal Free Energies=        -1281.273905

                     E (Thermal)             CV                S
                      KCal/Mol        Cal/Mol-Kelvin    Cal/Mol-Kelvin
 Total                  191.736             79.654            155.582
 Electronic               0.000              0.000              0.000
 Translational            0.889              2.981             42.766
 Rotational               0.889              2.981             33.525
 Vibrational            189.958             73.692             79.291
 Vibration     1          0.593              1.985              6.420
 Vibration     2          0.594              1.981              5.215
 Vibration     3          0.596              1.977              4.723
 Vibration     4          0.598              1.970              4.230
 Vibration     5          0.600              1.962              3.859
 Vibration     6          0.601              1.959              3.763
 Vibration     7          0.602              1.956              3.648
 Vibration     8          0.605              1.945              3.351
 Vibration     9          0.611              1.926              2.996
 Vibration    10          0.618              1.904              2.690
 Vibration    11          0.623              1.888              2.520
 Vibration    12          0.632              1.858              2.262
 Vibration    13          0.638              1.839              2.128
 Vibration    14          0.645              1.818              1.999
 Vibration    15          0.652              1.796              1.884
 Vibration    16          0.658              1.778              1.796
 Vibration    17          0.658              1.776              1.789
 Vibration    18          0.661              1.769              1.758
 Vibration    19          0.665              1.755              1.700
 Vibration    20          0.671              1.737              1.629
 Vibration    21          0.682              1.706              1.517
 Vibration    22          0.693              1.672              1.411
 Vibration    23          0.706              1.634              1.306
 Vibration    24          0.715              1.608              1.242
 Vibration    25          0.725              1.580              1.177
 Vibration    26          0.739              1.542              1.096
 Vibration    27          0.750              1.512              1.038
 Vibration    28          0.769              1.463              0.951
 Vibration    29          0.782              1.429              0.896
 Vibration    30          0.801              1.380              0.823
 Vibration    31          0.809              1.361              0.795
 Vibration    32          0.821              1.331              0.757
 Vibration    33          0.835              1.298              0.714
 Vibration    34          0.870              1.217              0.622
 Vibration    35          0.907              1.135              0.540
 Vibration    36          0.971              1.006              0.429

 Optimization completed.
    -- Stationary point found.
 Normal termination of Gaussian 16 at Sun Feb 25 04:05:57 2024.
