 Gaussian 16, Revision C.01,
 Gaussian 16:  ES64L-G16RevC.01  3-Jul-2019

 ---------------------------------------------
 # opt freq wb97xd/def2tzvpp geom=connectivity
 ---------------------------------------------

 ------------------------------------
 Mannitol PL1 to HL1 IRC reactant opt
 ------------------------------------
 Symbolic Z-matrix:
 Charge = -2 Multiplicity = 1

 SCF Done:  E(RwB97XD) =  -1280.31283416     A.U. after   15 cycles
 SCF Done:  E(RwB97XD) =  -1280.31000024     A.U. after   14 cycles
 SCF Done:  E(RwB97XD) =  -1280.31257869     A.U. after   15 cycles
 SCF Done:  E(RwB97XD) =  -1280.31342118     A.U. after   11 cycles
 SCF Done:  E(RwB97XD) =  -1280.31372148     A.U. after   13 cycles
 SCF Done:  E(RwB97XD) =  -1280.31490361     A.U. after   11 cycles
 SCF Done:  E(RwB97XD) =  -1280.31620284     A.U. after   14 cycles
 SCF Done:  E(RwB97XD) =  -1280.31803941     A.U. after   14 cycles
 SCF Done:  E(RwB97XD) =  -1280.31690324     A.U. after   14 cycles
 SCF Done:  E(RwB97XD) =  -1280.32246076     A.U. after   13 cycles
 SCF Done:  E(RwB97XD) =  -1280.32608477     A.U. after   12 cycles
 SCF Done:  E(RwB97XD) =  -1280.32611320     A.U. after    9 cycles
 SCF Done:  E(RwB97XD) =  -1280.32612106     A.U. after   11 cycles
 SCF Done:  E(RwB97XD) =  -1280.32613155     A.U. after   12 cycles
 SCF Done:  E(RwB97XD) =  -1280.32613748     A.U. after   12 cycles
 SCF Done:  E(RwB97XD) =  -1280.32613996     A.U. after   10 cycles
 SCF Done:  E(RwB97XD) =  -1280.32614078     A.U. after   10 cycles
 SCF Done:  E(RwB97XD) =  -1280.32614131     A.U. after    8 cycles
 SCF Done:  E(RwB97XD) =  -1280.32614147     A.U. after    9 cycles
 Optimization completed.
    -- Stationary point found.
 Normal termination of Gaussian 16 at Fri Feb 16 04:19:45 2024.

 ----------------------------------------------------------------------
 #N Geom=AllCheck Guess=TCheck SCRF=Check GenChk RwB97XD/def2TZVPP Freq
 ----------------------------------------------------------------------

 Structure from the checkpoint file:  "PmonoL_HbiL_mannitol_IRC_reverse_reactantOpt.chk"
 ------------------------------------
 Mannitol PL1 to HL1 IRC reactant opt
 ------------------------------------
 Charge = -2 Multiplicity = 1

                         Standard orientation:
 ---------------------------------------------------------------------
 Center     Atomic      Atomic             Coordinates (Angstroms)
 Number     Number       Type             X           Y           Z
 ---------------------------------------------------------------------
      1         14           0       -2.166837   -0.597243   -0.001798
      2          8           0       -2.014748   -0.109741    1.562556
      3          8           0       -1.994308    0.541875   -1.289950
      4          8           0       -2.508067   -2.200302   -0.441409
      5          8           0       -0.384145   -1.024804   -0.235876
      6          8           0        0.256455    0.863704    2.127128
      7          8           0       -3.922334   -0.245802    0.008939
      8          6           0        1.048165    0.558900    1.076648
      9          1           0        2.123724    0.574316    1.373033
     10          6           0        0.786043   -0.869953    0.511593
     11          1           0       -4.054006    0.144287    0.870296
     12          1           0       -1.099799    0.252940    1.846561
     13          1           0       -1.654916   -2.620729   -0.524248
     14          1           0       -2.901853    0.836662   -1.386318
     15          6           0        0.968147    1.538191   -0.138734
     16          1           0        0.593688    0.981174   -1.000617
     17          8           0        2.313268    1.987803   -0.459794
     18          1           0        2.258971    2.391749   -1.325347
     19          6           0        0.007280    2.693950    0.048598
     20          1           0       -0.731878    2.391429    0.792210
     21          1           0        0.539250    3.570644    0.427468
     22          8           0       -0.610457    3.063232   -1.185579
     23          1           0       -1.129753    2.271966   -1.410136
     24          6           0        1.907943   -1.369790   -0.419310
     25          1           0        1.976337   -0.684510   -1.275482
     26          8           0        1.543749   -2.658623   -0.902955
     27          1           0        0.584127   -2.548265   -0.982648
     28          6           0        3.300388   -1.443573    0.201110
     29          1           0        3.218054   -1.568303    1.289164
     30          1           0        3.804953   -2.325555   -0.201088
     31          8           0        4.117038   -0.327738   -0.110191
     32          1           0        3.555944    0.461683   -0.126381
     33          1           0        0.773470   -1.531266    1.396319
 ---------------------------------------------------------------------

 SCF Done:  E(RwB97XD) =  -1280.32614147     A.U. after    1 cycles

 The electronic state is 1-A.
 Alpha  occ. eigenvalues --  -66.01636 -19.02609 -19.01563 -19.00445 -18.99197
 Alpha  occ. eigenvalues --  -18.95829 -18.94874 -18.93633 -18.92203 -18.91048
 Alpha  occ. eigenvalues --  -18.86837 -10.09935 -10.08399 -10.06537 -10.06512
 Alpha  occ. eigenvalues --  -10.05741 -10.04521  -5.12620  -3.47214  -3.47152
 Alpha  occ. eigenvalues --   -3.47084  -0.89981  -0.89263  -0.88364  -0.86491
 Alpha  occ. eigenvalues --   -0.83487  -0.80625  -0.79452  -0.77576  -0.75488
 Alpha  occ. eigenvalues --   -0.74045  -0.61003  -0.58083  -0.53102  -0.48007
 Alpha  occ. eigenvalues --   -0.44717  -0.39913  -0.37410  -0.36333  -0.35381
 Alpha  occ. eigenvalues --   -0.34729  -0.33403  -0.31543  -0.30600  -0.29880
 Alpha  occ. eigenvalues --   -0.28558  -0.27596  -0.27125  -0.25593  -0.25503
 Alpha  occ. eigenvalues --   -0.24975  -0.23634  -0.22821  -0.21099  -0.20427
 Alpha  occ. eigenvalues --   -0.19362  -0.17984  -0.17297  -0.16623  -0.15613
 Alpha  occ. eigenvalues --   -0.14807  -0.14607  -0.14065  -0.13687  -0.12778
 Alpha  occ. eigenvalues --   -0.12243  -0.11250  -0.10308  -0.09155  -0.08953
 Alpha  occ. eigenvalues --   -0.07912  -0.06311  -0.01035  -0.00476
 Alpha virt. eigenvalues --    0.32292   0.34527   0.35067   0.36856   0.37897
 Alpha virt. eigenvalues --    0.38724   0.39214   0.40081   0.40671   0.42771
 Alpha virt. eigenvalues --    0.42959   0.43901   0.44291   0.45121   0.46372

 Mulliken charges:
               1
     1  Si   0.840326
     2  O   -0.564348
     3  O   -0.460820
     4  O   -0.471515
     5  O   -0.582067
     6  O   -0.683520
     7  O   -0.629032
     8  C    0.066769
     9  H   -0.019713
    10  C    0.239443
    11  H    0.147004
    12  H    0.236442
    13  H    0.149622
    14  H    0.145376
    15  C    0.112961
    16  H    0.050264
    17  O   -0.397925
    18  H    0.152122
    19  C    0.039226
    20  H    0.078308
    21  H    0.023530
    22  O   -0.475630
    23  H    0.221405
    24  C    0.114766
    25  H    0.013687
    26  O   -0.441018
    27  H    0.201775
    28  C    0.061758
    29  H    0.032053
    30  H    0.037618
    31  O   -0.446107
    32  H    0.215128
    33  H   -0.007885
 Sum of Mulliken charges =  -2.00000

 Dipole moment (field-independent basis, Debye):
    X=              4.3091    Y=              0.7799    Z=             -3.1050  Tot=              5.3682
 Quadrupole moment (field-independent basis, Debye-Ang):
   XX=           -185.3454   YY=           -146.2245   ZZ=           -135.2367
   XY=             -5.4572   XZ=             -2.1598   YZ=             -5.5613

  Exact polarizability:     161.551      -2.390     145.911       0.202      -1.114     124.011
 Approx polarizability:     159.448       0.167     151.935      -0.020      -0.569     148.568

                      1                      2                      3
                      A                      A                      A
 Frequencies --     35.9103                54.5590                81.4746
 Red. masses --      6.5618                 6.5021                 5.4596
 Frc consts  --      0.0050                 0.0114                 0.0214
 IR Inten    --      0.3168                 0.2692                 0.2831

                      4                      5                      6
                      A                      A                      A
 Frequencies --     92.2984                93.3851               124.8231
 Red. masses --      6.4712                 5.4263                 4.7531
 Frc consts  --      0.0325                 0.0279                 0.0436
 IR Inten    --      1.1963                 2.1234                 2.2788

                      7                      8                      9
                      A                      A                      A
 Frequencies --    135.0044               146.0491               154.8269
 Red. masses --      7.4170                 6.3512                 3.6089
 Frc consts  --      0.0796                 0.0798                 0.0510
 IR Inten    --      2.9314                 1.3143                 4.4145

                     10                     11                     12
                      A                      A                      A
 Frequencies --    177.2429               184.5482               218.7783
 Red. masses --      6.9847                 6.8425                 5.3553
 Frc consts  --      0.1293                 0.1373                 0.1510
 IR Inten    --      2.0327                 4.8695                 0.1051

                     13                     14                     15
                      A                      A                      A
 Frequencies --    243.1771               272.9415               285.9474
 Red. masses --      5.9488                 4.6389                 5.6763
 Frc consts  --      0.2073                 0.2036                 0.2735
 IR Inten    --     26.3962                 7.7022                17.3742

                     16                     17                     18
                      A                      A                      A
 Frequencies --    322.1731               324.3834               334.0933
 Red. masses --      4.4815                 3.2940                 1.9246
 Frc consts  --      0.2741                 0.2042                 0.1266
 IR Inten    --     13.4945                13.6753                28.2720

                     19                     20                     21
                      A                      A                      A
 Frequencies --    343.7190               359.5644               390.2507
 Red. masses --      1.4789                 2.3595                 2.5223
 Frc consts  --      0.1029                 0.1797                 0.2263
 IR Inten    --     38.9174                44.0250                23.1331

                     22                     23                     24
                      A                      A                      A
 Frequencies --    395.4801               401.6409               420.5654
 Red. masses --      5.5967                 3.9954                 4.3271
 Frc consts  --      0.5157                 0.3797                 0.4509
 IR Inten    --     87.1327                29.7139                 6.2819

                     25                     26                     27
                      A                      A                      A
 Frequencies --    432.5550               449.0291               487.8649
 Red. masses --      5.3450                 3.9990                 5.4820
 Frc consts  --      0.5892                 0.4751                 0.7688
 IR Inten    --     40.5962                13.0990                 4.7331

                     28                     29                     30
                      A                      A                      A
 Frequencies --    489.8809               510.0640               523.6730
 Red. masses --      4.6968                 2.5787                 1.5981
 Frc consts  --      0.6641                 0.3953                 0.2582
 IR Inten    --     13.8916                19.2796                20.6118

                     31                     32                     33
                      A                      A                      A
 Frequencies --    562.1329               606.1079               611.9654
 Red. masses --      6.4263                 1.4643                 1.1959
 Frc consts  --      1.1964                 0.3169                 0.2639
 IR Inten    --    109.9532                81.6327                22.6460

                     34                     35                     36
                      A                      A                      A
 Frequencies --    613.6076               646.3496               655.7329
 Red. masses --      2.4683                 4.4487                 1.2006
 Frc consts  --      0.5476                 1.0950                 0.3042
 IR Inten    --     83.1558               109.3410                78.3510

                     37                     38                     39
                      A                      A                      A
 Frequencies --    673.6052               739.5216               777.7805
 Red. masses --      5.4518                 4.1255                 1.3679
 Frc consts  --      1.4575                 1.3293                 0.4876
 IR Inten    --     66.5538                22.9806               145.1850

                     40                     41                     42
                      A                      A                      A
 Frequencies --    810.7672               890.0208               893.9648
 Red. masses --      4.0841                 2.5274                 2.6008
 Frc consts  --      1.5818                 1.1796                 1.2246
 IR Inten    --    278.3737               120.2585                78.4560

                     43                     44                     45
                      A                      A                      A
 Frequencies --    904.3410               925.9098               990.7423
 Red. masses --      3.3076                 1.7620                 1.7570
 Frc consts  --      1.5938                 0.8900                 1.0161
 IR Inten    --     48.0337                 9.7628                47.5121

                     46                     47                     48
                      A                      A                      A
 Frequencies --    997.5953              1008.3673              1046.3520
 Red. masses --      2.7737                 1.3695                 3.6959
 Frc consts  --      1.6264                 0.8204                 2.3841
 IR Inten    --     50.2399               265.7268               112.0503

                     49                     50                     51
                      A                      A                      A
 Frequencies --   1050.4685              1064.4236              1077.8546
 Red. masses --      3.3510                 4.5739                 3.3255
 Frc consts  --      2.1786                 3.0533                 2.2763
 IR Inten    --    108.0235               133.7256                79.5243

                     52                     53                     54
                      A                      A                      A
 Frequencies --   1096.6898              1103.2634              1108.1073
 Red. masses --      1.3598                 1.5959                 2.4537
 Frc consts  --      0.9636                 1.1445                 1.7752
 IR Inten    --    229.7916               134.4109                36.0848

                     55                     56                     57
                      A                      A                      A
 Frequencies --   1118.7204              1144.5822              1173.2029
 Red. masses --      1.6638                 2.7841                 3.6510
 Frc consts  --      1.2269                 2.1490                 2.9608
 IR Inten    --     36.0854                30.1642                55.9052

                     58                     59                     60
                      A                      A                      A
 Frequencies --   1202.7979              1216.7529              1238.8070
 Red. masses --      3.0273                 1.1595                 1.1885
 Frc consts  --      2.5804                 1.0114                 1.0746
 IR Inten    --    140.7972                27.3918                 5.7719

                     61                     62                     63
                      A                      A                      A
 Frequencies --   1251.9946              1270.0718              1297.8187
 Red. masses --      1.2978                 1.3291                 1.3162
 Frc consts  --      1.1985                 1.2632                 1.3061
 IR Inten    --     26.4072                75.9877                33.1688

                     64                     65                     66
                      A                      A                      A
 Frequencies --   1306.9142              1343.1618              1359.4277
 Red. masses --      1.2078                 1.2470                 1.2016
 Frc consts  --      1.2155                 1.3255                 1.3083
 IR Inten    --     24.4482                18.4918                 2.6607

                     67                     68                     69
                      A                      A                      A
 Frequencies --   1377.0616              1392.2282              1402.6374
 Red. masses --      1.2242                 1.1553                 1.3190
 Frc consts  --      1.3678                 1.3193                 1.5289
 IR Inten    --     32.7004                 7.6300                18.1813

                     70                     71                     72
                      A                      A                      A
 Frequencies --   1416.6818              1446.9988              1456.5033
 Red. masses --      1.3835                 1.3972                 1.2975
 Frc consts  --      1.6360                 1.7236                 1.6217
 IR Inten    --     15.5379                96.5292                18.2505

                     73                     74                     75
                      A                      A                      A
 Frequencies --   1457.4696              1486.5182              1495.8191
 Red. masses --      1.0976                 1.2591                 1.0668
 Frc consts  --      1.3737                 1.6393                 1.4063
 IR Inten    --     52.1006                73.2662                41.9966

                     76                     77                     78
                      A                      A                      A
 Frequencies --   1508.2852              1513.3336              2572.0048
 Red. masses --      1.1963                 1.0837                 1.0943
 Frc consts  --      1.6034                 1.4623                 4.2650
 IR Inten    --     23.3969                 3.2535              2018.1382

                     79                     80                     81
                      A                      A                      A
 Frequencies --   2786.4101              2918.7642              2987.8217
 Red. masses --      1.0764                 1.0813                 1.0744
 Frc consts  --      4.9242                 5.4273                 5.6508
 IR Inten    --     87.6635                92.4886                 6.8216

                     82                     83                     84
                      A                      A                      A
 Frequencies --   2995.4160              3044.7882              3064.9663
 Red. masses --      1.0759                 1.0619                 1.0945
 Frc consts  --      5.6875                 5.8002                 6.0577
 IR Inten    --    154.5730                74.5556                77.4394

                     85                     86                     87
                      A                      A                      A
 Frequencies --   3069.4886              3110.1883              3625.8225
 Red. masses --      1.0838                 1.1034                 1.0665
 Frc consts  --      6.0162                 6.2889                 8.2607
 IR Inten    --     23.1109                20.1402               353.9303

                     88                     89                     90
                      A                      A                      A
 Frequencies --   3686.8032              3691.8253              3882.3049
 Red. masses --      1.0670                 1.0647                 1.0637
 Frc consts  --      8.5450                 8.5496                 9.4462
 IR Inten    --    159.9022               362.1239                32.3263

                     91                     92                     93
                      A                      A                      A
 Frequencies --   3901.7316              3951.4314              3952.1614
 Red. masses --      1.0658                 1.0642                 1.0645
 Frc consts  --      9.5595                 9.7896                 9.7965
 IR Inten    --      7.5160                15.4521                14.3550

 - Thermochemistry -
 -------------------
 Temperature   298.150 Kelvin.  Pressure   1.00000 Atm.
 Atom     1 has atomic number 14 and mass  27.97693

 Molecular mass:   276.05128 amu.
 Principal axes and moments of inertia in atomic units:
                           1         2         3
     Eigenvalues --  3225.029195435.471787080.24324
           X            0.99986  -0.01650   0.00080
           Y            0.01651   0.99985  -0.00586
           Z           -0.00070   0.00588   0.99998
 This molecule is an asymmetric top.
 Rotational symmetry number  1.
 Warning -- assumption of classical behavior for rotation
           may cause significant error
 Rotational temperatures (Kelvin)      0.02686     0.01593     0.01223
 Rotational constants (GHZ):           0.55960     0.33203     0.25490
 Zero-point vibrational energy     678649.2 (Joules/Mol)
                                  162.20106 (Kcal/Mol)
 Warning -- explicit consideration of  34 degrees of freedom as
           vibrations may cause significant error
 Vibrational temperatures:     51.67    78.50   117.22   132.80   134.36
          (Kelvin)            179.59   194.24   210.13   222.76   255.01
                              265.52   314.77   349.88   392.70   411.41
                              463.54   466.72   480.69   494.54   517.33
                              561.48   569.01   577.87   605.10   622.35
                              646.05   701.93   704.83   733.87   753.45
                              808.78   872.05   880.48   882.84   929.95
                              943.45   969.17  1064.01  1119.05  1166.51
                             1280.54  1286.22  1301.14  1332.18  1425.46
                             1435.32  1450.82  1505.47  1511.39  1531.47
                             1550.79  1577.89  1587.35  1594.32  1609.59
                             1646.80  1687.98  1730.56  1750.64  1782.37
                             1801.34  1827.35  1867.27  1880.36  1932.51
                             1955.91  1981.28  2003.11  2018.08  2038.29
                             2081.91  2095.58  2096.97  2138.77  2152.15
                             2170.09  2177.35  3700.54  4009.02  4199.45
                             4298.81  4309.74  4380.77  4409.80  4416.31
                             4474.87  5216.75  5304.49  5311.71  5585.77
                             5613.72  5685.23  5686.28

 Zero-point correction=                           0.258484 (Hartree/Particle)
 Thermal correction to Energy=                    0.277619
 Thermal correction to Enthalpy=                  0.278564
 Thermal correction to Gibbs Free Energy=         0.212276
 Sum of electronic and zero-point Energies=          -1280.067658
 Sum of electronic and thermal Energies=             -1280.048522
 Sum of electronic and thermal Enthalpies=           -1280.047578
 Sum of electronic and thermal Free Energies=        -1280.113866

                     E (Thermal)             CV                S
                      KCal/Mol        Cal/Mol-Kelvin    Cal/Mol-Kelvin
 Total                  174.209             73.140            139.514
 Electronic               0.000              0.000              0.000
 Translational            0.889              2.981             42.745
 Rotational               0.889              2.981             33.184
 Vibrational            172.431             67.179             63.586
 Vibration     1          0.594              1.982              5.473
 Vibration     2          0.596              1.976              4.645
 Vibration     3          0.600              1.962              3.855
 Vibration     4          0.602              1.955              3.611
 Vibration     5          0.602              1.954              3.588
 Vibration     6          0.610              1.928              3.024
 Vibration     7          0.613              1.918              2.873
 Vibration     8          0.617              1.907              2.723
 Vibration     9          0.620              1.897              2.612
 Vibration    10          0.628              1.870              2.357
 Vibration    11          0.631              1.861              2.282
 Vibration    12          0.647              1.812              1.969
 Vibration    13          0.659              1.774              1.780
 Vibration    14          0.676              1.723              1.578
 Vibration    15          0.684              1.700              1.498
 Vibration    16          0.707              1.631              1.299
 Vibration    17          0.709              1.627              1.288
 Vibration    18          0.716              1.607              1.240
 Vibration    19          0.722              1.588              1.195
 Vibration    20          0.734              1.556              1.124
 Vibration    21          0.758              1.491              0.999
 Vibration    22          0.762              1.480              0.979
 Vibration    23          0.767              1.467              0.957
 Vibration    24          0.783              1.426              0.890
 Vibration    25          0.793              1.399              0.850
 Vibration    26          0.808              1.363              0.799
 Vibration    27          0.844              1.277              0.689
 Vibration    28          0.846              1.272              0.684
 Vibration    29          0.865              1.228              0.633
 Vibration    30          0.879              1.198              0.602
 Vibration    31          0.918              1.113              0.520
 Vibration    32          0.965              1.019              0.439
 Vibration    33          0.971              1.007              0.430
 Vibration    34          0.973              1.003              0.427

                           ! Non-Optimized Parameters !
 Normal termination of Gaussian 16 at Fri Feb 16 11:26:09 2024.
