 Gaussian 16, Revision C.01,
 Gaussian 16:  ES64L-G16RevC.01  3-Jul-2019

 ---------------------------------------------
 # opt freq wb97xd/def2tzvpp geom=connectivity
 ---------------------------------------------

 ------------------------------------------
 IRC product opt mannitol PL1HL1 transition
 ------------------------------------------
 Symbolic Z-matrix:
 Charge = -2 Multiplicity = 1

 SCF Done:  E(RwB97XD) =  -1280.31603957     A.U. after   15 cycles
 SCF Done:  E(RwB97XD) =  -1279.94298872     A.U. after   16 cycles
 SCF Done:  E(RwB97XD) =  -1280.31282326     A.U. after   13 cycles
 SCF Done:  E(RwB97XD) =  -1280.31769101     A.U. after   10 cycles
 SCF Done:  E(RwB97XD) =  -1280.31526759     A.U. after   13 cycles
 SCF Done:  E(RwB97XD) =  -1280.31897206     A.U. after   12 cycles
 SCF Done:  E(RwB97XD) =  -1280.31928337     A.U. after   12 cycles
 SCF Done:  E(RwB97XD) =  -1280.31919995     A.U. after   12 cycles
 SCF Done:  E(RwB97XD) =  -1280.31968878     A.U. after   12 cycles
 SCF Done:  E(RwB97XD) =  -1280.32054345     A.U. after   12 cycles
 SCF Done:  E(RwB97XD) =  -1280.32294837     A.U. after   13 cycles
 SCF Done:  E(RwB97XD) =  -1280.32295233     A.U. after   11 cycles
 SCF Done:  E(RwB97XD) =  -1280.32294795     A.U. after   12 cycles
 SCF Done:  E(RwB97XD) =  -1280.32295672     A.U. after   11 cycles
 SCF Done:  E(RwB97XD) =  -1280.32295065     A.U. after   11 cycles
 SCF Done:  E(RwB97XD) =  -1280.32295705     A.U. after   11 cycles
 SCF Done:  E(RwB97XD) =  -1280.32295708     A.U. after    7 cycles
 SCF Done:  E(RwB97XD) =  -1280.32295709     A.U. after    8 cycles
 SCF Done:  E(RwB97XD) =  -1280.32295711     A.U. after    6 cycles
 Optimization completed.
    -- Stationary point found.
 Normal termination of Gaussian 16 at Tue Feb 20 17:25:17 2024.

 ----------------------------------------------------------------------
 #N Geom=AllCheck Guess=TCheck SCRF=Check GenChk RwB97XD/def2TZVPP Freq
 ----------------------------------------------------------------------

 Structure from the checkpoint file:  "PmonoL_HbiL_mannitol_IRC_forward_productOpt.chk"
 ------------------------------------------
 IRC product opt mannitol PL1HL1 transition
 ------------------------------------------
 Charge = -2 Multiplicity = 1

                         Standard orientation:
 ---------------------------------------------------------------------
 Center     Atomic      Atomic             Coordinates (Angstroms)
 Number     Number       Type             X           Y           Z
 ---------------------------------------------------------------------
      1         14           0       -1.916719   -0.543987    0.099414
      2          8           0       -1.857738   -1.789710    1.414303
      3          8           0       -1.937641    0.671789   -1.215624
      4          8           0       -2.690241   -1.721409   -0.942599
      5          8           0       -0.236790   -1.169547   -0.592935
      6          8           0       -0.801615    0.529503    1.135680
      7          8           0       -3.322868    0.211079    0.787195
      8          6           0        0.532132    0.529786    0.817970
      9          1           0        1.148673    0.690217    1.723281
     10          6           0        0.822463   -0.868224    0.226939
     11          1           0       -3.548313   -0.364470    1.514110
     12          1           0       -1.319678   -1.388075    2.092970
     13          1           0       -2.436733   -2.562983   -0.569322
     14          1           0       -1.499733    0.239734   -1.945402
     15          6           0        0.904132    1.684754   -0.135043
     16          1           0        0.784331    1.359933   -1.172770
     17          8           0        2.304541    1.984699    0.108747
     18          1           0        2.631982    2.459449   -0.652559
     19          6           0        0.050650    2.945429    0.050119
     20          1           0       -0.349301    2.950596    1.072080
     21          1           0        0.716673    3.814239   -0.059729
     22          8           0       -0.964380    3.071855   -0.899932
     23          1           0       -1.418985    2.181157   -0.975977
     24          6           0        2.116408   -1.117549   -0.577168
     25          1           0        2.303837   -0.275484   -1.261066
     26          8           0        1.896877   -2.292297   -1.338482
     27          1           0        0.918469   -2.281755   -1.395256
     28          6           0        3.370038   -1.341140    0.258804
     29          1           0        3.125797   -2.037242    1.071779
     30          1           0        4.113436   -1.832772   -0.380350
     31          8           0        3.945580   -0.164107    0.791916
     32          1           0        3.345508    0.577849    0.621410
     33          1           0        0.857353   -1.567754    1.089130
 ---------------------------------------------------------------------

 SCF Done:  E(RwB97XD) =  -1280.32295711     A.U. after    1 cycles

 The electronic state is 1-A.
 Alpha  occ. eigenvalues --  -65.99512 -19.04731 -19.01664 -18.99586 -18.96615
 Alpha  occ. eigenvalues --  -18.92085 -18.91441 -18.91283 -18.90097 -18.89419
 Alpha  occ. eigenvalues --  -18.89026 -10.10139 -10.08857 -10.08738 -10.07739
 Alpha  occ. eigenvalues --  -10.06249 -10.05755  -5.09993  -3.44564  -3.44551
 Alpha  occ. eigenvalues --   -3.44537  -0.91849  -0.89619  -0.88143  -0.84974
 Alpha  occ. eigenvalues --   -0.82833  -0.77655  -0.77244  -0.75757  -0.73642
 Alpha  occ. eigenvalues --   -0.72954  -0.61160  -0.59194  -0.53521  -0.48707
 Alpha  occ. eigenvalues --   -0.45307  -0.40858  -0.38853  -0.36294  -0.35314
 Alpha  occ. eigenvalues --   -0.34144  -0.32373  -0.31262  -0.31065  -0.28840
 Alpha  occ. eigenvalues --   -0.27814  -0.26640  -0.26254  -0.25475  -0.24844
 Alpha  occ. eigenvalues --   -0.24172  -0.23065  -0.22172  -0.21548  -0.20723
 Alpha  occ. eigenvalues --   -0.19788  -0.17812  -0.17072  -0.15586  -0.14207
 Alpha  occ. eigenvalues --   -0.13710  -0.13412  -0.12848  -0.11255  -0.10210
 Alpha  occ. eigenvalues --   -0.09714  -0.08866  -0.07945  -0.07655  -0.06886
 Alpha  occ. eigenvalues --   -0.05356  -0.04281  -0.03888  -0.03592
 Alpha virt. eigenvalues --    0.30094   0.34076   0.35580   0.36113   0.37258
 Alpha virt. eigenvalues --    0.38895   0.39892   0.40599   0.40799   0.41696
 Alpha virt. eigenvalues --    0.42088   0.43193   0.44050   0.45241   0.45692

 Mulliken charges:
               1
     1  Si   0.903493
     2  O   -0.624664
     3  O   -0.507050
     4  O   -0.557616
     5  O   -0.540466
     6  O   -0.512187
     7  O   -0.527181
     8  C    0.192052
     9  H    0.002177
    10  C    0.160171
    11  H    0.109450
    12  H    0.129665
    13  H    0.138145
    14  H    0.134534
    15  C    0.064856
    16  H    0.040924
    17  O   -0.373042
    18  H    0.147627
    19  C    0.098921
    20  H    0.036201
    21  H   -0.018401
    22  O   -0.495929
    23  H    0.254009
    24  C    0.133164
    25  H   -0.007393
    26  O   -0.454083
    27  H    0.218378
    28  C    0.085895
    29  H    0.012658
    30  H    0.025606
    31  O   -0.458388
    32  H    0.219943
    33  H   -0.031472
 Sum of Mulliken charges =  -2.00000

 Dipole moment (field-independent basis, Debye):
    X=              8.7101    Y=              1.7933    Z=              0.0028  Tot=              8.8928
 Quadrupole moment (field-independent basis, Debye-Ang):
   XX=           -187.2608   YY=           -149.1687   ZZ=           -124.9260
   XY=              7.3067   XZ=             -7.1998   YZ=             -2.8389

  Exact polarizability:     157.975       0.038     148.351       1.104      -0.368     125.003
 Approx polarizability:     156.270       1.830     154.086       2.565      -0.230     149.808

                      1                      2                      3
                      A                      A                      A
 Frequencies --     47.9281                63.5864                73.8746
 Red. masses --      6.7008                 5.1778                 6.4028
 Frc consts  --      0.0091                 0.0123                 0.0206
 IR Inten    --      3.2222                 5.9515                 1.6483

                      4                      5                      6
                      A                      A                      A
 Frequencies --     87.4399               124.1978               138.6366
 Red. masses --      5.0097                 4.3008                 4.7403
 Frc consts  --      0.0226                 0.0391                 0.0537
 IR Inten    --      6.4556                 2.9227                 2.0535

                      7                      8                      9
                      A                      A                      A
 Frequencies --    164.3129               175.2417               193.9506
 Red. masses --      3.6970                 3.9412                 2.4328
 Frc consts  --      0.0588                 0.0713                 0.0539
 IR Inten    --      5.0351                 1.4722                 8.1978

                     10                     11                     12
                      A                      A                      A
 Frequencies --    207.8694               221.5675               226.6066
 Red. masses --      3.3288                 2.4898                 4.7801
 Frc consts  --      0.0847                 0.0720                 0.1446
 IR Inten    --      0.4550                 2.0102                 4.7194

                     13                     14                     15
                      A                      A                      A
 Frequencies --    247.0615               258.0762               268.4407
 Red. masses --      2.6878                 1.3516                 2.0175
 Frc consts  --      0.0967                 0.0530                 0.0857
 IR Inten    --     12.8307                48.5072                42.2181

                     16                     17                     18
                      A                      A                      A
 Frequencies --    292.3127               312.9830               332.2820
 Red. masses --      3.3037                 2.0380                 2.2602
 Frc consts  --      0.1663                 0.1176                 0.1470
 IR Inten    --      4.4820                 9.8216                33.8793

                     19                     20                     21
                      A                      A                      A
 Frequencies --    339.4114               345.1055               367.3120
 Red. masses --      4.5632                 2.7155                 3.5632
 Frc consts  --      0.3097                 0.1905                 0.2832
 IR Inten    --      8.0986                 8.1771                 3.8528

                     22                     23                     24
                      A                      A                      A
 Frequencies --    379.7577               391.5211               405.3373
 Red. masses --      3.9999                 4.3388                 4.6626
 Frc consts  --      0.3399                 0.3919                 0.4514
 IR Inten    --     32.0214                30.1506               112.0912

                     25                     26                     27
                      A                      A                      A
 Frequencies --    407.5777               426.7584               442.4395
 Red. masses --      4.3651                 4.7421                 5.0274
 Frc consts  --      0.4272                 0.5088                 0.5798
 IR Inten    --     20.1902                12.9733                22.4841

                     28                     29                     30
                      A                      A                      A
 Frequencies --    481.2022               491.0733               505.9556
 Red. masses --      4.2673                 4.9663                 1.4776
 Frc consts  --      0.5822                 0.7056                 0.2229
 IR Inten    --     12.2336                10.6170                21.1606

                     31                     32                     33
                      A                      A                      A
 Frequencies --    509.8344               530.1973               567.6630
 Red. masses --      4.3762                 6.4743                 6.7337
 Frc consts  --      0.6702                 1.0723                 1.2785
 IR Inten    --     26.9923                67.6305                45.7427

                     34                     35                     36
                      A                      A                      A
 Frequencies --    597.0789               621.9596               634.7809
 Red. masses --      4.6879                 5.1212                 2.8855
 Frc consts  --      0.9847                 1.1672                 0.6851
 IR Inten    --     29.4801               214.8504               211.3936

                     37                     38                     39
                      A                      A                      A
 Frequencies --    647.7536               682.4860               695.1800
 Red. masses --      1.7706                 8.8166                 9.4584
 Frc consts  --      0.4377                 2.4196                 2.6932
 IR Inten    --     33.3984               273.9902               387.9294

                     40                     41                     42
                      A                      A                      A
 Frequencies --    760.1740               781.1647               869.8899
 Red. masses --      1.7308                 1.6201                 2.6145
 Frc consts  --      0.5893                 0.5825                 1.1656
 IR Inten    --     65.7881                35.5374                30.6611

                     43                     44                     45
                      A                      A                      A
 Frequencies --    923.4699               938.5442               960.5629
 Red. masses --      1.7763                 1.1633                 1.2399
 Frc consts  --      0.8925                 0.6037                 0.6740
 IR Inten    --     29.7030               121.0674               260.3382

                     46                     47                     48
                      A                      A                      A
 Frequencies --    978.1516               987.0395              1032.6880
 Red. masses --      2.2929                 1.1606                 3.2795
 Frc consts  --      1.2925                 0.6662                 2.0606
 IR Inten    --     60.8385               113.0754                16.3433

                     49                     50                     51
                      A                      A                      A
 Frequencies --   1040.1871              1055.7366              1073.3785
 Red. masses --      1.2270                 2.4876                 1.9294
 Frc consts  --      0.7822                 1.6336                 1.3098
 IR Inten    --    163.6504                19.1697               133.9436

                     52                     53                     54
                      A                      A                      A
 Frequencies --   1079.2414              1095.9220              1099.1422
 Red. masses --      1.4984                 2.6005                 5.8274
 Frc consts  --      1.0283                 1.8402                 4.1480
 IR Inten    --     75.2956                 8.9822                80.0848

                     55                     56                     57
                      A                      A                      A
 Frequencies --   1118.6814              1142.9199              1153.1657
 Red. masses --      3.4404                 4.8341                 3.1864
 Frc consts  --      2.5367                 3.7204                 2.4965
 IR Inten    --     59.0399                88.0283                 9.6606

                     58                     59                     60
                      A                      A                      A
 Frequencies --   1191.2928              1196.4541              1223.2175
 Red. masses --      3.1700                 4.1931                 1.6227
 Frc consts  --      2.6506                 3.5365                 1.4305
 IR Inten    --    172.7703                35.1903                 4.1687

                     61                     62                     63
                      A                      A                      A
 Frequencies --   1250.7257              1260.8015              1306.7538
 Red. masses --      1.1846                 1.1425                 1.1488
 Frc consts  --      1.0918                 1.0701                 1.1558
 IR Inten    --      9.6076                 4.9066                 8.5920

                     64                     65                     66
                      A                      A                      A
 Frequencies --   1314.1977              1328.5115              1343.4453
 Red. masses --      1.3201                 1.1976                 1.2176
 Frc consts  --      1.3434                 1.2454                 1.2948
 IR Inten    --     12.8916                 1.6790                15.2442

                     67                     68                     69
                      A                      A                      A
 Frequencies --   1350.7803              1370.7628              1384.4773
 Red. masses --      1.2589                 1.2182                 1.2997
 Frc consts  --      1.3534                 1.3486                 1.4678
 IR Inten    --      8.5544                 3.4604                16.5498

                     70                     71                     72
                      A                      A                      A
 Frequencies --   1400.3745              1406.9343              1430.2919
 Red. masses --      1.3444                 1.4637                 1.3369
 Frc consts  --      1.5533                 1.7071                 1.6114
 IR Inten    --     14.7017                 6.6668                19.3663

                     73                     74                     75
                      A                      A                      A
 Frequencies --   1480.3999              1487.4705              1507.8187
 Red. masses --      1.1846                 1.0891                 1.3743
 Frc consts  --      1.5296                 1.4198                 1.8409
 IR Inten    --     50.8894                 4.6271               135.2014

                     76                     77                     78
                      A                      A                      A
 Frequencies --   1522.8019              1574.7281              2839.1829
 Red. masses --      1.0968                 1.1166                 1.0781
 Frc consts  --      1.4985                 1.6313                 5.1204
 IR Inten    --      1.5257                55.6245                90.2522

                     79                     80                     81
                      A                      A                      A
 Frequencies --   2889.3470              2951.0233              2963.3258
 Red. masses --      1.0813                 1.0653                 1.0807
 Frc consts  --      5.3186                 5.4660                 5.5915
 IR Inten    --    146.5756               587.9212                86.8874

                     82                     83                     84
                      A                      A                      A
 Frequencies --   2990.3782              3012.1015              3021.0526
 Red. masses --      1.0564                 1.0970                 1.1064
 Frc consts  --      5.5661                 5.8638                 5.9497
 IR Inten    --    137.8221                52.1624                96.3406

                     85                     86                     87
                      A                      A                      A
 Frequencies --   3039.1676              3056.0376              3492.6993
 Red. masses --      1.0737                 1.0858                 1.0645
 Frc consts  --      5.8433                 5.9746                 7.6507
 IR Inten    --    832.4831                50.4924               296.3251

                     88                     89                     90
                      A                      A                      A
 Frequencies --   3663.2908              3928.9945              3942.2741
 Red. masses --      1.0680                 1.0661                 1.0655
 Frc consts  --      8.4441                 9.6963                 9.7568
 IR Inten    --    533.0872                12.0074                 2.1259

                     91                     92                     93
                      A                      A                      A
 Frequencies --   3948.4331              3955.7068              3958.2290
 Red. masses --      1.0642                 1.0645                 1.0649
 Frc consts  --      9.7755                 9.8144                 9.8305
 IR Inten    --      4.3863                 5.8139                 9.5537

 - Thermochemistry -
 -------------------
 Temperature   298.150 Kelvin.  Pressure   1.00000 Atm.
 Atom     1 has atomic number 14 and mass  27.97693

 Molecular mass:   276.05128 amu.
 Principal axes and moments of inertia in atomic units:
                           1         2         3
     Eigenvalues --  3156.591565051.252316807.76598
           X            1.00000  -0.00002  -0.00280
           Y            0.00001   0.99998  -0.00598
           Z            0.00280   0.00598   0.99998
 This molecule is an asymmetric top.
 Rotational symmetry number  1.
 Warning -- assumption of classical behavior for rotation
           may cause significant error
 Rotational temperatures (Kelvin)      0.02744     0.01715     0.01272
 Rotational constants (GHZ):           0.57174     0.35729     0.26510
 Zero-point vibrational energy     675772.2 (Joules/Mol)
                                  161.51344 (Kcal/Mol)
 Warning -- explicit consideration of  34 degrees of freedom as
           vibrations may cause significant error
 Vibrational temperatures:     68.96    91.49   106.29   125.81   178.69
          (Kelvin)            199.47   236.41   252.13   279.05   299.08
                              318.79   326.04   355.47   371.31   386.23
                              420.57   450.31   478.08   488.34   496.53
                              528.48   546.39   563.31   583.19   586.41
                              614.01   636.57   692.34   706.54   727.96
                              733.54   762.84   816.74   859.06   894.86
                              913.31   931.97   981.95  1000.21  1093.72
                             1123.92  1251.58  1328.67  1350.36  1382.04
                             1407.34  1420.13  1485.81  1496.60  1518.97
                             1544.35  1552.79  1576.79  1581.42  1609.53
                             1644.41  1659.15  1714.00  1721.43  1759.94
                             1799.52  1814.01  1880.13  1890.84  1911.43
                             1932.92  1943.47  1972.22  1991.95  2014.83
                             2024.26  2057.87  2129.97  2140.14  2169.41
                             2190.97  2265.68  4084.95  4157.13  4245.86
                             4263.56  4302.49  4333.74  4346.62  4372.68
                             4396.96  5025.22  5270.66  5652.95  5672.05
                             5680.91  5691.38  5695.01

 Zero-point correction=                           0.257388 (Hartree/Particle)
 Thermal correction to Energy=                    0.276695
 Thermal correction to Enthalpy=                  0.277639
 Thermal correction to Gibbs Free Energy=         0.211996
 Sum of electronic and zero-point Energies=          -1280.065569
 Sum of electronic and thermal Energies=             -1280.046262
 Sum of electronic and thermal Enthalpies=           -1280.045318
 Sum of electronic and thermal Free Energies=        -1280.110961

                     E (Thermal)             CV                S
                      KCal/Mol        Cal/Mol-Kelvin    Cal/Mol-Kelvin
 Total                  173.629             74.779            138.158
 Electronic               0.000              0.000              0.000
 Translational            0.889              2.981             42.745
 Rotational               0.889              2.981             33.051
 Vibrational            171.851             68.817             62.362
 Vibration     1          0.595              1.978              4.901
 Vibration     2          0.597              1.972              4.343
 Vibration     3          0.599              1.966              4.047
 Vibration     4          0.601              1.958              3.717
 Vibration     5          0.610              1.929              3.034
 Vibration     6          0.614              1.915              2.823
 Vibration     7          0.623              1.886              2.500
 Vibration     8          0.627              1.873              2.379
 Vibration     9          0.635              1.848              2.190
 Vibration    10          0.641              1.829              2.062
 Vibration    11          0.648              1.808              1.946
 Vibration    12          0.650              1.800              1.906
 Vibration    13          0.661              1.768              1.751
 Vibration    14          0.667              1.749              1.675
 Vibration    15          0.673              1.731              1.606
 Vibration    16          0.688              1.688              1.461
 Vibration    17          0.701              1.649              1.347
 Vibration    18          0.714              1.611              1.249
 Vibration    19          0.719              1.597              1.215
 Vibration    20          0.723              1.585              1.188
 Vibration    21          0.740              1.539              1.091
 Vibration    22          0.750              1.513              1.040
 Vibration    23          0.759              1.488              0.994
 Vibration    24          0.770              1.459              0.943
 Vibration    25          0.772              1.454              0.935
 Vibration    26          0.788              1.412              0.869
 Vibration    27          0.802              1.378              0.819
 Vibration    28          0.838              1.292              0.707
 Vibration    29          0.847              1.270              0.681
 Vibration    30          0.861              1.237              0.643
 Vibration    31          0.865              1.228              0.634
 Vibration    32          0.885              1.183              0.587
 Vibration    33          0.924              1.101              0.509
 Vibration    34          0.955              1.038              0.455

 Optimization completed.
    -- Stationary point found.
 Normal termination of Gaussian 16 at Wed Feb 21 05:47:29 2024.
