 Gaussian 16, Revision C.01,
 Gaussian 16:  ES64L-G16RevC.01  3-Jul-2019

 ------------------------------------------------------------------
 # opt=(calcall,ts,noeigen) freq wb97xd/def2tzvpp geom=connectivity
 ------------------------------------------------------------------

 Take EG unoptimized geometry with correct imaginary frequency and buil
 d mannitol unfreeze geom from prev modredundant run and perform a TS o
 pt
 ----------------------------------------------------------------------
 Symbolic Z-matrix:
 Charge =  0 Multiplicity = 1

 SCF Done:  E(RwB97XD) =  -1281.50073104     A.U. after   14 cycles
 SCF Done:  E(RwB97XD) =  -1281.50038532     A.U. after   12 cycles
 SCF Done:  E(RwB97XD) =  -1281.49257266     A.U. after   12 cycles
 SCF Done:  E(RwB97XD) =  -1281.48079337     A.U. after   12 cycles
 SCF Done:  E(RwB97XD) =  -1281.47227805     A.U. after   12 cycles
 SCF Done:  E(RwB97XD) =  -1281.46886215     A.U. after   12 cycles
 SCF Done:  E(RwB97XD) =  -1281.47140023     A.U. after   13 cycles
 SCF Done:  E(RwB97XD) =  -1281.47564956     A.U. after   12 cycles
 SCF Done:  E(RwB97XD) =  -1281.47953084     A.U. after   12 cycles
 SCF Done:  E(RwB97XD) =  -1281.48273528     A.U. after   12 cycles
 SCF Done:  E(RwB97XD) =  -1281.48469845     A.U. after   12 cycles
 SCF Done:  E(RwB97XD) =  -1281.48539495     A.U. after   12 cycles
 SCF Done:  E(RwB97XD) =  -1281.48585880     A.U. after   12 cycles
 SCF Done:  E(RwB97XD) =  -1281.48632334     A.U. after   14 cycles
 SCF Done:  E(RwB97XD) =  -1281.48755413     A.U. after   14 cycles
 SCF Done:  E(RwB97XD) =  -1281.48913069     A.U. after   14 cycles
 SCF Done:  E(RwB97XD) =  -1281.48941080     A.U. after   12 cycles
 SCF Done:  E(RwB97XD) =  -1281.48942966     A.U. after   10 cycles
 SCF Done:  E(RwB97XD) =  -1281.48943141     A.U. after    8 cycles
 Optimization completed.
    -- Stationary point found.
 ******    1 imaginary frequencies (negative Signs) ******
 Normal termination of Gaussian 16 at Sat Feb 10 03:46:20 2024.

 ----------------------------------------------------------------------
 #N Geom=AllCheck Guess=TCheck SCRF=Check GenChk RwB97XD/def2TZVPP Freq
 ----------------------------------------------------------------------

 Take EG unoptimized geometry with correct imaginary frequency and buil
 d mannitol unfreeze geom from prev modredundant run and perform a TS o
 pt
 ----------------------------------------------------------------------
 Charge =  0 Multiplicity = 1

                         Standard orientation:
 ---------------------------------------------------------------------
 Center     Atomic      Atomic             Coordinates (Angstroms)
 Number     Number       Type             X           Y           Z
 ---------------------------------------------------------------------
      1         14           0        1.900214   -1.229950    0.039920
      2          8           0        2.009468   -2.730301   -0.618308
      3          1           0        1.207604   -3.243722   -0.664041
      4          8           0        3.791498   -1.131741    0.394425
      5          1           0        4.294044   -1.824406   -0.037682
      6          8           0        2.280586    0.071111   -0.810017
      7          1           0        3.498713   -0.318085   -0.321662
      8          8           0        1.411951   -1.193315    1.604900
      9          1           0        2.121465   -1.185026    2.242835
     10          6           0       -0.965485   -0.195762    0.116437
     11          1           0       -0.842177   -0.279065    1.192418
     12          6           0       -0.640031    1.237059   -0.370379
     13          1           0       -1.585699    1.758894   -0.509750
     14          8           0       -0.012612   -1.113265   -0.488072
     15          1           0        0.050755   -0.793829   -1.405860
     16          8           0        0.004994    1.178802   -1.625973
     17          1           0        0.951191    0.953035   -1.461081
     18          6           0       -2.354148   -0.667820   -0.298897
     19          1           0       -2.412244   -0.663553   -1.398185
     20          6           0        0.151139    2.039251    0.665543
     21          1           0        0.992485    1.441803    1.033880
     22          6           0        0.737419    3.312978    0.059670
     23          1           0        1.049495    3.971821    0.873413
     24          1           0        1.638281    3.043664   -0.502067
     25          6           0       -2.651689   -2.074001    0.193183
     26          1           0       -1.953892   -2.789455   -0.249373
     27          1           0       -2.543558   -2.097013    1.282930
     28          8           0       -3.277204    0.240215    0.242724
     29          1           0       -4.146905   -0.151646    0.141369
     30          8           0       -0.772629    2.280877    1.710203
     31          1           0       -0.316238    2.701388    2.436815
     32          8           0       -0.160122    4.049636   -0.733909
     33          1           0       -0.296257    3.553804   -1.543121
     34          8           0       -3.985660   -2.356700   -0.192660
     35          1           0       -4.295454   -3.132118    0.270433
 ---------------------------------------------------------------------

 SCF Done:  E(RwB97XD) =  -1281.48943141     A.U. after    1 cycles

 The electronic state is 1-A.
 Alpha  occ. eigenvalues --  -66.32031 -19.32809 -19.27892 -19.27289 -19.25583
 Alpha  occ. eigenvalues --  -19.25529 -19.25475 -19.25070 -19.24569 -19.23279
 Alpha  occ. eigenvalues --  -19.18931 -10.35928 -10.34914 -10.34507 -10.33698
 Alpha  occ. eigenvalues --  -10.32733 -10.31716  -5.43459  -3.78291  -3.77895
 Alpha  occ. eigenvalues --   -3.77687  -1.20743  -1.15936  -1.15450  -1.13756
 Alpha  occ. eigenvalues --   -1.13091  -1.12182  -1.11519  -1.10883  -1.10707
 Alpha  occ. eigenvalues --   -1.01811  -0.89634  -0.85355  -0.81400  -0.75573
 Alpha  occ. eigenvalues --   -0.72103  -0.69225  -0.67930  -0.66332  -0.64729
 Alpha  occ. eigenvalues --   -0.64213  -0.63146  -0.61997  -0.60825  -0.58051
 Alpha  occ. eigenvalues --   -0.57915  -0.57445  -0.56467  -0.55010  -0.54570
 Alpha  occ. eigenvalues --   -0.53373  -0.52398  -0.50779  -0.49814  -0.48934
 Alpha  occ. eigenvalues --   -0.48645  -0.47901  -0.46294  -0.45889  -0.45302
 Alpha  occ. eigenvalues --   -0.45188  -0.44515  -0.42833  -0.42606  -0.41997
 Alpha  occ. eigenvalues --   -0.41150  -0.40654  -0.38835  -0.38008  -0.37722
 Alpha  occ. eigenvalues --   -0.36902  -0.36491  -0.35822  -0.33448
 Alpha virt. eigenvalues --    0.07385   0.09006   0.10472   0.11947   0.12612
 Alpha virt. eigenvalues --    0.13174   0.14128   0.14531   0.15639   0.16884
 Alpha virt. eigenvalues --    0.17677   0.18388   0.19387   0.19988   0.20333

 Mulliken charges:
               1
     1  Si   0.781571
     2  O   -0.399243
     3  H    0.177364
     4  O   -0.366363
     5  H    0.189328
     6  O   -0.643559
     7  H    0.280208
     8  O   -0.371013
     9  H    0.170826
    10  C    0.098510
    11  H    0.097308
    12  C    0.138467
    13  H    0.109952
    14  O   -0.270003
    15  H    0.208929
    16  O   -0.448229
    17  H    0.232332
    18  C    0.119983
    19  H    0.062905
    20  C    0.100128
    21  H    0.077955
    22  C    0.027995
    23  H    0.050530
    24  H    0.080641
    25  C   -0.019657
    26  H    0.071350
    27  H    0.088896
    28  O   -0.326939
    29  H    0.176689
    30  O   -0.323391
    31  H    0.153712
    32  O   -0.350052
    33  H    0.188458
    34  O   -0.338721
    35  H    0.173134
 Sum of Mulliken charges =  -0.00000

 Dipole moment (field-independent basis, Debye):
    X=              0.5554    Y=             -5.5656    Z=              2.0504  Tot=              5.9572
 Quadrupole moment (field-independent basis, Debye-Ang):
   XX=            -99.5306   YY=           -107.9000   ZZ=           -104.0979
   XY=             10.1753   XZ=              2.7620   YZ=              2.2536

  Exact polarizability:     146.142       0.954     141.272       0.764       0.355     116.041
 Approx polarizability:     148.128      -2.716     141.784       0.716       0.360     140.095

                      1                      2                      3
                      A                      A                      A
 Frequencies --  -1030.4349                40.9791                47.5364
 Red. masses --      1.1912                 6.2398                 6.1839
 Frc consts  --      0.7452                 0.0062                 0.0082
 IR Inten    --   1584.6449                 0.3039                 2.7568

                      4                      5                      6
                      A                      A                      A
 Frequencies --     54.9906                72.5528                74.9480
 Red. masses --      4.7105                 6.1965                 5.6545
 Frc consts  --      0.0084                 0.0192                 0.0187
 IR Inten    --      3.7359                 0.9126                 0.6047

                      7                      8                      9
                      A                      A                      A
 Frequencies --     85.7400               114.1152               120.1357
 Red. masses --      5.3305                 4.0842                 3.8371
 Frc consts  --      0.0231                 0.0313                 0.0326
 IR Inten    --      1.2189                 2.4261                 6.1190

                     10                     11                     12
                      A                      A                      A
 Frequencies --    145.0553               163.1846               194.5399
 Red. masses --      4.0829                 2.8054                 6.8570
 Frc consts  --      0.0506                 0.0440                 0.1529
 IR Inten    --      5.6331                20.9868                 7.4820

                     13                     14                     15
                      A                      A                      A
 Frequencies --    199.9612               216.0064               226.7108
 Red. masses --      4.5383                 1.8172                 2.3179
 Frc consts  --      0.1069                 0.0500                 0.0702
 IR Inten    --      8.4212                56.2267                44.0494

                     16                     17                     18
                      A                      A                      A
 Frequencies --    236.9077               238.2158               258.7780
 Red. masses --      1.4992                 1.9328                 2.4647
 Frc consts  --      0.0496                 0.0646                 0.0972
 IR Inten    --     78.3171                16.0209                42.8306

                     19                     20                     21
                      A                      A                      A
 Frequencies --    277.7294               283.1618               310.8162
 Red. masses --      3.6533                 4.1465                 3.7826
 Frc consts  --      0.1660                 0.1959                 0.2153
 IR Inten    --     12.0022                22.8656                14.8976

                     22                     23                     24
                      A                      A                      A
 Frequencies --    315.2449               334.4582               339.3079
 Red. masses --      3.0403                 2.0773                 2.2702
 Frc consts  --      0.1780                 0.1369                 0.1540
 IR Inten    --     20.5467                 7.4025                55.3226

                     25                     26                     27
                      A                      A                      A
 Frequencies --    362.2006               378.5659               382.2438
 Red. masses --      3.3033                 4.1581                 2.9212
 Frc consts  --      0.2553                 0.3511                 0.2515
 IR Inten    --     44.6010                37.0859                36.1520

                     28                     29                     30
                      A                      A                      A
 Frequencies --    398.4423               409.6816               468.7512
 Red. masses --      3.4724                 1.4677                 3.4970
 Frc consts  --      0.3248                 0.1451                 0.4527
 IR Inten    --     53.4560                48.4410               545.9321

                     31                     32                     33
                      A                      A                      A
 Frequencies --    472.5269               486.1413               513.4986
 Red. masses --      2.1053                 1.5307                 4.9327
 Frc consts  --      0.2770                 0.2131                 0.7663
 IR Inten    --     26.3849               311.5717                14.6624

                     34                     35                     36
                      A                      A                      A
 Frequencies --    521.3123               592.5196               604.1515
 Red. masses --      3.6980                 1.1402                 3.2580
 Frc consts  --      0.5921                 0.2358                 0.7006
 IR Inten    --     16.8086                96.9445                22.3430

                     37                     38                     39
                      A                      A                      A
 Frequencies --    645.9085               707.4783               719.7712
 Red. masses --      3.7423                 1.8602                 4.1844
 Frc consts  --      0.9199                 0.5486                 1.2773
 IR Inten    --      1.1980               131.0609               111.7194

                     40                     41                     42
                      A                      A                      A
 Frequencies --    756.7947               799.4904               823.9290
 Red. masses --      1.5751                 2.3672                 3.7647
 Frc consts  --      0.5315                 0.8915                 1.5058
 IR Inten    --     74.8931               155.9160               110.8182

                     43                     44                     45
                      A                      A                      A
 Frequencies --    872.3277               876.7754               909.5326
 Red. masses --      1.3557                 2.6279                 1.6340
 Frc consts  --      0.6078                 1.1903                 0.7964
 IR Inten    --    121.6081                 9.7921               503.1062

                     46                     47                     48
                      A                      A                      A
 Frequencies --    916.0536               927.4005               960.9149
 Red. masses --      2.2803                 3.2786                 2.6537
 Frc consts  --      1.1274                 1.6614                 1.4437
 IR Inten    --     33.3517                90.1826                62.3215

                     49                     50                     51
                      A                      A                      A
 Frequencies --    974.9742              1020.7124              1052.3433
 Red. masses --      2.7815                 2.0754                 2.3144
 Frc consts  --      1.5578                 1.2740                 1.5101
 IR Inten    --     80.6484                94.7415               127.6563

                     52                     53                     54
                      A                      A                      A
 Frequencies --   1064.0135              1068.5722              1107.3974
 Red. masses --      3.0786                 2.4820                 2.3174
 Frc consts  --      2.0535                 1.6698                 1.6744
 IR Inten    --     61.9239                99.8574                69.4276

                     55                     56                     57
                      A                      A                      A
 Frequencies --   1110.6037              1113.3242              1124.1004
 Red. masses --      3.8916                 2.1966                 2.5931
 Frc consts  --      2.8281                 1.6042                 1.9305
 IR Inten    --    133.1007               106.0222                57.5442

                     58                     59                     60
                      A                      A                      A
 Frequencies --   1142.3420              1152.0085              1162.1764
 Red. masses --      3.3631                 2.5402                 2.5895
 Frc consts  --      2.5857                 1.9862                 2.0607
 IR Inten    --     79.3239                38.0095                43.3219

                     61                     62                     63
                      A                      A                      A
 Frequencies --   1219.0131              1234.9156              1250.6922
 Red. masses --      1.1653                 1.2491                 1.2322
 Frc consts  --      1.0202                 1.1224                 1.1356
 IR Inten    --      6.6363                10.4497                20.5874

                     64                     65                     66
                      A                      A                      A
 Frequencies --   1258.5852              1280.6870              1301.8735
 Red. masses --      1.2896                 1.1824                 1.1802
 Frc consts  --      1.2036                 1.1426                 1.1785
 IR Inten    --     17.9248                21.5831                49.6488

                     67                     68                     69
                      A                      A                      A
 Frequencies --   1329.4503              1352.6093              1370.8762
 Red. masses --      1.2318                 1.2639                 1.3427
 Frc consts  --      1.2827                 1.3624                 1.4867
 IR Inten    --      4.9346                11.3737                35.3845

                     70                     71                     72
                      A                      A                      A
 Frequencies --   1387.4089              1400.6671              1412.8876
 Red. masses --      1.3192                 1.3344                 1.2510
 Frc consts  --      1.4961                 1.5425                 1.4714
 IR Inten    --      9.3210                 4.0471                13.4377

                     73                     74                     75
                      A                      A                      A
 Frequencies --   1422.9909              1427.9106              1443.9737
 Red. masses --      1.3031                 1.0717                 1.3570
 Frc consts  --      1.5546                 1.2875                 1.6670
 IR Inten    --     57.6014                70.9752                37.4551

                     76                     77                     78
                      A                      A                      A
 Frequencies --   1447.6850              1463.1326              1479.0475
 Red. masses --      1.2980                 1.4853                 1.7263
 Frc consts  --      1.6028                 1.8734                 2.2250
 IR Inten    --     17.8475                 7.3660                 2.1324

                     79                     80                     81
                      A                      A                      A
 Frequencies --   1505.1180              1517.3229              1518.9770
 Red. masses --      1.0883                 1.0860                 1.1808
 Frc consts  --      1.4525                 1.4732                 1.6052
 IR Inten    --      3.1800                 4.8158                32.8867

                     82                     83                     84
                      A                      A                      A
 Frequencies --   2061.1561              2979.9655              3027.7527
 Red. masses --      1.0494                 1.0825                 1.0577
 Frc consts  --      2.6267                 5.6636                 5.7129
 IR Inten    --    203.2435                29.1880                36.7507

                     85                     86                     87
                      A                      A                      A
 Frequencies --   3030.1090              3049.6128              3082.7935
 Red. masses --      1.0660                 1.0801                 1.1063
 Frc consts  --      5.7666                 5.9183                 6.1944
 IR Inten    --     15.4534                38.6232                36.2778

                     88                     89                     90
                      A                      A                      A
 Frequencies --   3088.9386              3124.9638              3163.2150
 Red. masses --      1.1019                 1.0861                 1.0879
 Frc consts  --      6.1945                 6.2492                 6.4137
 IR Inten    --     36.1045                 9.1530                 2.8876

                     91                     92                     93
                      A                      A                      A
 Frequencies --   3353.9874              3647.5958              3878.6388
 Red. masses --      1.0700                 1.0636                 1.0657
 Frc consts  --      7.0920                 8.3378                 9.4458
 IR Inten    --    648.5089               130.2913                78.9054

                     94                     95                     96
                      A                      A                      A
 Frequencies --   3886.7176              3910.9493              3931.5038
 Red. masses --      1.0658                 1.0656                 1.0665
 Frc consts  --      9.4858                 9.6028                 9.7128
 IR Inten    --     42.8275                87.3260                34.2230

                     97                     98                     99
                      A                      A                      A
 Frequencies --   3945.2187              3980.6978              3990.9299
 Red. masses --      1.0668                 1.0661                 1.0665
 Frc consts  --      9.7835                 9.9537                10.0081
 IR Inten    --     61.6573               106.4694                62.7838

 - Thermochemistry -
 -------------------
 Temperature   298.150 Kelvin.  Pressure   1.00000 Atm.
 Atom     1 has atomic number 14 and mass  27.97693

 Molecular mass:   278.06693 amu.
 Principal axes and moments of inertia in atomic units:
                           1         2         3
     Eigenvalues --  4378.134845063.455248029.03209
           X            0.99563   0.09342   0.00065
           Y           -0.09342   0.99563   0.00092
           Z           -0.00056  -0.00097   1.00000
 This molecule is an asymmetric top.
 Rotational symmetry number  1.
 Warning -- assumption of classical behavior for rotation
           may cause significant error
 Rotational temperatures (Kelvin)      0.01978     0.01711     0.01079
 Rotational constants (GHZ):           0.41222     0.35642     0.22478
    1 imaginary frequencies ignored.
 Zero-point vibrational energy     736365.1 (Joules/Mol)
                                  175.99548 (Kcal/Mol)
 Warning -- explicit consideration of  35 degrees of freedom as
           vibrations may cause significant error
 Vibrational temperatures:     58.96    68.39    79.12   104.39   107.83
          (Kelvin)            123.36   164.19   172.85   208.70   234.79
                              279.90   287.70   310.79   326.19   340.86
                              342.74   372.32   399.59   407.41   447.20
                              453.57   481.21   488.19   521.13   544.67
                              549.96   573.27   589.44   674.43   679.86
                              699.45   738.81   750.05   852.50   869.24
                              929.32  1017.90  1035.59  1088.86  1150.29
                             1185.45  1255.08  1261.48  1308.61  1318.00
                             1334.32  1382.54  1402.77  1468.58  1514.09
                             1530.88  1537.44  1593.30  1597.91  1601.83
                             1617.33  1643.58  1657.48  1672.11  1753.89
                             1776.77  1799.47  1810.82  1842.62  1873.11
                             1912.78  1946.10  1972.39  1996.17  2015.25
                             2032.83  2047.37  2054.44  2077.56  2082.90
                             2105.12  2128.02  2165.53  2183.09  2185.47
                             2965.54  4287.51  4356.26  4359.65  4387.71
                             4435.45  4444.29  4496.13  4551.16  4825.64
                             5248.08  5580.50  5592.12  5626.98  5656.56
                             5676.29  5727.34  5742.06

 Zero-point correction=                           0.280467 (Hartree/Particle)
 Thermal correction to Energy=                    0.301443
 Thermal correction to Enthalpy=                  0.302387
 Thermal correction to Gibbs Free Energy=         0.231482
 Sum of electronic and zero-point Energies=          -1281.208965
 Sum of electronic and thermal Energies=             -1281.187988
 Sum of electronic and thermal Enthalpies=           -1281.187044
 Sum of electronic and thermal Free Energies=        -1281.257950

                     E (Thermal)             CV                S
                      KCal/Mol        Cal/Mol-Kelvin    Cal/Mol-Kelvin
 Total                  189.158             77.324            149.234
 Electronic               0.000              0.000              0.000
 Translational            0.889              2.981             42.766
 Rotational               0.889              2.981             33.542
 Vibrational            187.381             71.362             72.925
 Vibration     1          0.594              1.981              5.211
 Vibration     2          0.595              1.979              4.917
 Vibration     3          0.596              1.976              4.629
 Vibration     4          0.599              1.967              4.083
 Vibration     5          0.599              1.966              4.019
 Vibration     6          0.601              1.959              3.755
 Vibration     7          0.607              1.938              3.198
 Vibration     8          0.609              1.932              3.098
 Vibration     9          0.616              1.908              2.736
 Vibration    10          0.623              1.888              2.513
 Vibration    11          0.635              1.847              2.184
 Vibration    12          0.638              1.840              2.133
 Vibration    13          0.645              1.817              1.992
 Vibration    14          0.650              1.800              1.905
 Vibration    15          0.656              1.784              1.826
 Vibration    16          0.656              1.782              1.816
 Vibration    17          0.668              1.748              1.670
 Vibration    18          0.679              1.715              1.548
 Vibration    19          0.682              1.705              1.514
 Vibration    20          0.700              1.653              1.358
 Vibration    21          0.703              1.645              1.335
 Vibration    22          0.716              1.607              1.238
 Vibration    23          0.719              1.597              1.215
 Vibration    24          0.736              1.550              1.113
 Vibration    25          0.749              1.516              1.045
 Vibration    26          0.752              1.508              1.030
 Vibration    27          0.765              1.473              0.968
 Vibration    28          0.774              1.449              0.928
 Vibration    29          0.826              1.319              0.741
 Vibration    30          0.829              1.311              0.731
 Vibration    31          0.842              1.281              0.694
 Vibration    32          0.869              1.220              0.625
 Vibration    33          0.876              1.203              0.607
 Vibration    34          0.950              1.048              0.463
 Vibration    35          0.963              1.023              0.443

 Optimization completed.
    -- Stationary point found.
 P Freq\\Take EG unoptimized geometry with correct imaginary frequency
 Normal termination of Gaussian 16 at Sat Feb 10 10:15:23 2024.
