 Gaussian 16, Revision C.01,
 Gaussian 16:  ES64L-G16RevC.01  3-Jul-2019

 -----------------------------------------------------------------
 # opt=(calcfc,ts,noeigen) freq wb97xd/def2tzvpp geom=connectivity
 -----------------------------------------------------------------

 Convert Ethylene Glycol P(L) to H(=L) TS to mannitol Unfreeze TS geome
 try and follow imag freq
 ----------------------------------------------------------------------
 Symbolic Z-matrix:
 Charge = -2 Multiplicity = 1

 SCF Done:  E(RwB97XD) =  -1280.31008836     A.U. after   15 cycles
 SCF Done:  E(RwB97XD) =  -1280.31120835     A.U. after   13 cycles
 SCF Done:  E(RwB97XD) =  -1280.31142047     A.U. after   12 cycles
 SCF Done:  E(RwB97XD) =  -1280.31146757     A.U. after   12 cycles
 SCF Done:  E(RwB97XD) =  -1280.31147337     A.U. after    9 cycles
 SCF Done:  E(RwB97XD) =  -1280.31064128     A.U. after   13 cycles
 SCF Done:  E(RwB97XD) =  -1280.31138188     A.U. after   13 cycles
 SCF Done:  E(RwB97XD) =  -1280.31141978     A.U. after   13 cycles
 SCF Done:  E(RwB97XD) =  -1280.31143104     A.U. after   12 cycles
 SCF Done:  E(RwB97XD) =  -1280.31147204     A.U. after   11 cycles
 SCF Done:  E(RwB97XD) =  -1280.31147523     A.U. after    9 cycles
 SCF Done:  E(RwB97XD) =  -1280.31095873     A.U. after   13 cycles
 SCF Done:  E(RwB97XD) =  -1280.31141590     A.U. after   12 cycles
 SCF Done:  E(RwB97XD) =  -1280.31146380     A.U. after   12 cycles
 SCF Done:  E(RwB97XD) =  -1280.31147514     A.U. after   11 cycles
 SCF Done:  E(RwB97XD) =  -1280.31147535     A.U. after    8 cycles
 Optimization completed.
    -- Stationary point found.
 Normal termination of Gaussian 16 at Tue Feb  6 02:05:46 2024.

 ----------------------------------------------------------------------
 #N Geom=AllCheck Guess=TCheck SCRF=Check GenChk RwB97XD/def2TZVPP Freq
 ----------------------------------------------------------------------

 ----------------------------------------------------------------------
 Convert Ethylene Glycol P(L) to H(=L) TS to mannitol Unfreeze TS geome
 try and follow imag freq
 ----------------------------------------------------------------------
 Charge = -2 Multiplicity = 1

                         Standard orientation:
 ---------------------------------------------------------------------
 Center     Atomic      Atomic             Coordinates (Angstroms)
 Number     Number       Type             X           Y           Z
 ---------------------------------------------------------------------
      1         14           0       -2.069777   -0.549675    0.014259
      2          8           0       -1.859835   -1.333764    1.545177
      3          8           0       -2.015081    0.795974   -1.110531
      4          8           0       -2.769331   -1.802057   -0.920288
      5          8           0       -0.405015   -0.979618   -0.545826
      6          8           0       -0.487617    0.879207    1.403334
      7          8           0       -3.578352    0.158039    0.582067
      8          6           0        0.724127    0.604634    0.874429
      9          1           0        1.552501    0.633950    1.629042
     10          6           0        0.696528   -0.834367    0.287790
     11          1           0       -3.727520   -0.264047    1.424386
     12          1           0       -1.303949   -0.676502    1.992754
     13          1           0       -2.039827   -2.286263   -1.299340
     14          1           0       -2.879661    1.192650   -1.001542
     15          6           0        1.150072    1.637017   -0.207848
     16          1           0        0.872568    1.260007   -1.197698
     17          8           0        2.596513    1.780096   -0.147081
     18          1           0        2.888678    2.088074   -1.002824
     19          6           0        0.480718    2.998931   -0.037137
     20          1           0        0.260669    3.149864    1.026180
     21          1           0        1.190340    3.772831   -0.365205
     22          8           0       -0.673793    3.133884   -0.821228
     23          1           0       -1.150888    2.270263   -0.802813
     24          6           0        1.915885   -1.339785   -0.503092
     25          1           0        2.187378   -0.617335   -1.286388
     26          8           0        1.538935   -2.564906   -1.120519
     27          1           0        0.580334   -2.433876   -1.212367
     28          6           0        3.159558   -1.608820    0.342681
     29          1           0        2.846506   -1.961295    1.335258
     30          1           0        3.713592   -2.421716   -0.136064
     31          8           0        4.041865   -0.510746    0.462468
     32          1           0        3.520681    0.303750    0.379869
     33          1           0        0.597835   -1.509447    1.155607
 ---------------------------------------------------------------------

 SCF Done:  E(RwB97XD) =  -1280.31147535     A.U. after    1 cycles

 The electronic state is 1-A.
 Alpha  occ. eigenvalues --  -66.01133 -19.03881 -19.01190 -18.99985 -18.97110
 Alpha  occ. eigenvalues --  -18.93574 -18.92910 -18.92773 -18.91541 -18.90517
 Alpha  occ. eigenvalues --  -18.87356 -10.09766 -10.08553 -10.07593 -10.07191
 Alpha  occ. eigenvalues --  -10.05252 -10.04689  -5.11858  -3.46571  -3.46354
 Alpha  occ. eigenvalues --   -3.46270  -0.90954  -0.89276  -0.88123  -0.85228
 Alpha  occ. eigenvalues --   -0.82527  -0.79503  -0.77619  -0.76916  -0.74968
 Alpha  occ. eigenvalues --   -0.74079  -0.60758  -0.58182  -0.52908  -0.48209
 Alpha  occ. eigenvalues --   -0.44752  -0.40039  -0.37875  -0.36168  -0.34755
 Alpha  occ. eigenvalues --   -0.34190  -0.32673  -0.31029  -0.30166  -0.28734
 Alpha  occ. eigenvalues --   -0.27951  -0.27677  -0.26693  -0.26203  -0.24865
 Alpha  occ. eigenvalues --   -0.24377  -0.22748  -0.22234  -0.21231  -0.20395
 Alpha  occ. eigenvalues --   -0.19205  -0.17918  -0.16633  -0.15733  -0.14658
 Alpha  occ. eigenvalues --   -0.14451  -0.13701  -0.13412  -0.12905  -0.11494
 Alpha  occ. eigenvalues --   -0.11243  -0.09361  -0.09246  -0.08983  -0.07355
 Alpha  occ. eigenvalues --   -0.06585  -0.05606  -0.01511  -0.01076
 Alpha virt. eigenvalues --    0.30715   0.34622   0.35465   0.36505   0.38051
 Alpha virt. eigenvalues --    0.39074   0.39525   0.40313   0.41601   0.41992
 Alpha virt. eigenvalues --    0.43048   0.43392   0.44283   0.45147   0.46862

 Mulliken charges:
               1
     1  Si   0.892723
     2  O   -0.580220
     3  O   -0.440347
     4  O   -0.492938
     5  O   -0.542131
     6  O   -0.706233
     7  O   -0.577344
     8  C    0.133831
     9  H   -0.033111
    10  C    0.207228
    11  H    0.125348
    12  H    0.183348
    13  H    0.127489
    14  H    0.132041
    15  C    0.094183
    16  H    0.055866
    17  O   -0.374990
    18  H    0.145010
    19  C    0.107202
    20  H    0.028688
    21  H   -0.022397
    22  O   -0.482332
    23  H    0.241329
    24  C    0.135967
    25  H   -0.002284
    26  O   -0.445088
    27  H    0.209168
    28  C    0.067000
    29  H    0.023338
    30  H    0.033285
    31  O   -0.459157
    32  H    0.222175
    33  H   -0.006644
 Sum of Mulliken charges =  -2.00000

 Dipole moment (field-independent basis, Debye):
    X=              6.4566    Y=              0.9776    Z=             -1.6840  Tot=              6.7438
 Quadrupole moment (field-independent basis, Debye-Ang):
   XX=           -181.6517   YY=           -150.7425   ZZ=           -127.2960
   XY=              2.7243   XZ=             -4.6609   YZ=             -2.0914

  Exact polarizability:     163.227       0.343     149.414       0.380      -1.457     123.671
 Approx polarizability:     162.266       1.265     153.849       0.596      -1.226     148.139

 ******    1 imaginary frequencies (negative Signs) ******

                      1                      2                      3
                      A                      A                      A
 Frequencies --   -144.0224                46.9580                62.0888
 Red. masses --      9.8809                 6.2193                 5.7237
 Frc consts  --      0.1208                 0.0081                 0.0130
 IR Inten    --     24.7915                 1.3821                 2.8979

                      4                      5                      6
                      A                      A                      A
 Frequencies --     83.7803                99.2071               127.2124
 Red. masses --      5.5953                 4.7508                 4.3130
 Frc consts  --      0.0231                 0.0275                 0.0411
 IR Inten    --      2.0363                 6.5432                 3.3054

                      7                      8                      9
                      A                      A                      A
 Frequencies --    132.9443               161.3784               177.7275
 Red. masses --      4.7470                 6.8731                 3.3852
 Frc consts  --      0.0494                 0.1055                 0.0630
 IR Inten    --      6.1872                 1.5019                 6.0105

                     10                     11                     12
                      A                      A                      A
 Frequencies --    185.9180               207.2605               232.7415
 Red. masses --      4.4417                 6.3156                 1.6244
 Frc consts  --      0.0905                 0.1598                 0.0518
 IR Inten    --      3.4731                 3.2003                20.2196

                     13                     14                     15
                      A                      A                      A
 Frequencies --    236.7450               246.7559               268.5310
 Red. masses --      3.9680                 5.0806                 1.2749
 Frc consts  --      0.1310                 0.1823                 0.0542
 IR Inten    --      1.7101                 5.7349                69.3664

                     16                     17                     18
                      A                      A                      A
 Frequencies --    286.9381               302.8157               324.2179
 Red. masses --      3.7477                 3.4044                 3.2193
 Frc consts  --      0.1818                 0.1839                 0.1994
 IR Inten    --     18.3521                15.0293                 6.9497

                     19                     20                     21
                      A                      A                      A
 Frequencies --    355.1344               375.3716               379.6539
 Red. masses --      3.4482                 3.0132                 3.0644
 Frc consts  --      0.2562                 0.2502                 0.2602
 IR Inten    --      5.9733                47.7896                25.8337

                     22                     23                     24
                      A                      A                      A
 Frequencies --    402.8763               411.3932               422.8798
 Red. masses --      4.7701                 4.5038                 2.2774
 Frc consts  --      0.4562                 0.4491                 0.2400
 IR Inten    --      6.1917                71.6461                 8.8948

                     25                     26                     27
                      A                      A                      A
 Frequencies --    434.8760               455.2730               468.7185
 Red. masses --      4.5295                 5.0467                 4.3674
 Frc consts  --      0.5047                 0.6163                 0.5653
 IR Inten    --     37.1299                36.0598                14.3476

                     28                     29                     30
                      A                      A                      A
 Frequencies --    482.3238               501.9227               518.5474
 Red. masses --      5.7910                 5.0064                 6.2034
 Frc consts  --      0.7937                 0.7431                 0.9828
 IR Inten    --     24.4594                 9.8273                 5.6290

                     31                     32                     33
                      A                      A                      A
 Frequencies --    540.4321               559.7858               566.3233
 Red. masses --      1.3751                 4.7031                 5.0766
 Frc consts  --      0.2366                 0.8683                 0.9593
 IR Inten    --     12.1551                21.0096                41.6256

                     34                     35                     36
                      A                      A                      A
 Frequencies --    659.8141               669.2827               675.6119
 Red. masses --      3.0561                 1.4209                 1.4655
 Frc consts  --      0.7839                 0.3750                 0.3941
 IR Inten    --      3.7143                50.5340                83.8745

                     37                     38                     39
                      A                      A                      A
 Frequencies --    686.4647               736.4983               743.1053
 Red. masses --      2.8007                 7.8048                 3.4525
 Frc consts  --      0.7776                 2.4943                 1.1233
 IR Inten    --    215.9177               210.5538                93.4670

                     40                     41                     42
                      A                      A                      A
 Frequencies --    751.3568               797.1840               836.1760
 Red. masses --      6.1664                 1.2178                 1.1478
 Frc consts  --      2.0510                 0.4560                 0.4728
 IR Inten    --    160.2021               168.3134               187.4994

                     43                     44                     45
                      A                      A                      A
 Frequencies --    863.5151               929.0796               966.1915
 Red. masses --      2.7772                 1.7956                 1.9361
 Frc consts  --      1.2201                 0.9132                 1.0649
 IR Inten    --     52.7018                 1.8161                51.2310

                     46                     47                     48
                      A                      A                      A
 Frequencies --    981.0903              1006.7372              1024.6265
 Red. masses --      1.3381                 1.2515                 3.7002
 Frc consts  --      0.7589                 0.7474                 2.2888
 IR Inten    --    184.7204               168.9114                12.7204

                     49                     50                     51
                      A                      A                      A
 Frequencies --   1046.1118              1068.7292              1074.6228
 Red. masses --      2.2647                 2.9706                 2.1331
 Frc consts  --      1.4602                 1.9991                 1.4514
 IR Inten    --      0.5295                76.2739                47.8170

                     52                     53                     54
                      A                      A                      A
 Frequencies --   1087.2294              1094.4604              1107.9485
 Red. masses --      1.8264                 1.6355                 2.6137
 Frc consts  --      1.2720                 1.1542                 1.8904
 IR Inten    --     79.1554               519.3709               185.5456

                     55                     56                     57
                      A                      A                      A
 Frequencies --   1121.1583              1134.5862              1154.3212
 Red. masses --      3.2111                 4.0129                 2.9095
 Frc consts  --      2.3781                 3.0436                 2.2841
 IR Inten    --     36.1290                51.4895                 6.5851

                     58                     59                     60
                      A                      A                      A
 Frequencies --   1186.8029              1198.0931              1221.2251
 Red. masses --      3.5028                 2.0613                 2.0264
 Frc consts  --      2.9069                 1.7433                 1.7806
 IR Inten    --     11.4443               182.5294                10.8380

                     61                     62                     63
                      A                      A                      A
 Frequencies --   1248.7211              1257.3095              1297.4728
 Red. masses --      1.1838                 1.1480                 1.1758
 Frc consts  --      1.0876                 1.0692                 1.1662
 IR Inten    --     16.3804                 5.4559                22.4701

                     64                     65                     66
                      A                      A                      A
 Frequencies --   1313.4659              1328.9961              1344.4475
 Red. masses --      1.3299                 1.1419                 1.2580
 Frc consts  --      1.3518                 1.1883                 1.3397
 IR Inten    --     12.3723                10.9242                 6.2140

                     67                     68                     69
                      A                      A                      A
 Frequencies --   1357.1735              1368.3476              1389.0509
 Red. masses --      1.2319                 1.2251                 1.2821
 Frc consts  --      1.3369                 1.3515                 1.4575
 IR Inten    --      2.7703                 8.8296                15.8862

                     70                     71                     72
                      A                      A                      A
 Frequencies --   1398.0966              1409.8299              1434.8597
 Red. masses --      1.4011                 1.2877                 1.3271
 Frc consts  --      1.6136                 1.5080                 1.6098
 IR Inten    --      4.7540                11.9361                16.5948

                     73                     74                     75
                      A                      A                      A
 Frequencies --   1476.5809              1483.9343              1507.9520
 Red. masses --      1.3240                 1.0935                 1.2237
 Frc consts  --      1.7008                 1.4187                 1.6395
 IR Inten    --     98.5851                 4.2413                69.2615

                     76                     77                     78
                      A                      A                      A
 Frequencies --   1518.4053              1559.0722              2721.0743
 Red. masses --      1.0970                 1.1309                 1.0758
 Frc consts  --      1.4902                 1.6195                 4.6930
 IR Inten    --      1.4095                67.2456               254.0572

                     79                     80                     81
                      A                      A                      A
 Frequencies --   2929.8939              2960.8874              2975.7326
 Red. masses --      1.0800                 1.0667                 1.0778
 Frc consts  --      5.4622                 5.5099                 5.6230
 IR Inten    --     62.9222               231.6494                19.3365

                     82                     83                     84
                      A                      A                      A
 Frequencies --   2986.8884              3025.3956              3046.4912
 Red. masses --      1.0713                 1.0914                 1.0880
 Frc consts  --      5.6309                 5.8859                 5.9492
 IR Inten    --    181.5377                31.8863                30.0951

                     85                     86                     87
                      A                      A                      A
 Frequencies --   3048.3067              3346.7845              3643.7028
 Red. masses --      1.0945                 1.0712                 1.0651
 Frc consts  --      5.9924                 7.0693                 8.3315
 IR Inten    --    104.0941               851.7452                64.9186

                     88                     89                     90
                      A                      A                      A
 Frequencies --   3650.2897              3661.3609              3907.0015
 Red. masses --      1.0661                 1.0647                 1.0644
 Frc consts  --      8.3699                 8.4097                 9.5726
 IR Inten    --    627.9014               264.0021                18.8305

                     91                     92                     93
                      A                      A                      A
 Frequencies --   3923.5667              3958.6660              3962.9313
 Red. masses --      1.0661                 1.0647                 1.0645
 Frc consts  --      9.6696                 9.8307                 9.8496
 IR Inten    --      8.8325                11.7106                 4.8739

 - Thermochemistry -
 -------------------
 Temperature   298.150 Kelvin.  Pressure   1.00000 Atm.
 Atom     1 has atomic number 14 and mass  27.97693

 Molecular mass:   276.05128 amu.
 Principal axes and moments of inertia in atomic units:
                           1         2         3
     Eigenvalues --  3201.400345179.976827059.24513
           X            0.99998  -0.00564  -0.00109
           Y            0.00564   0.99997  -0.00499
           Z            0.00112   0.00499   0.99999
 This molecule is an asymmetric top.
 Rotational symmetry number  1.
 Warning -- assumption of classical behavior for rotation
           may cause significant error
 Rotational temperatures (Kelvin)      0.02706     0.01672     0.01227
 Rotational constants (GHZ):           0.56373     0.34841     0.25566
    1 imaginary frequencies ignored.
 Zero-point vibrational energy     677824.7 (Joules/Mol)
                                  162.00400 (Kcal/Mol)
 Warning -- explicit consideration of  32 degrees of freedom as
           vibrations may cause significant error
 Vibrational temperatures:     67.56    89.33   120.54   142.74   183.03
          (Kelvin)            191.28   232.19   255.71   267.49   298.20
                              334.86   340.62   355.03   386.36   412.84
                              435.68   466.48   510.96   540.08   546.24
                              579.65   591.90   608.43   625.69   655.04
                              674.38   693.96   722.15   746.07   777.56
                              805.41   814.81   949.33   962.95   972.05
                              987.67  1059.66  1069.16  1081.03  1146.97
                             1203.07  1242.41  1336.74  1390.13  1411.57
                             1448.47  1474.21  1505.12  1537.66  1546.14
                             1564.28  1574.68  1594.09  1613.10  1632.42
                             1660.81  1707.54  1723.79  1757.07  1796.63
                             1808.99  1866.77  1889.78  1912.13  1934.36
                             1952.67  1968.75  1998.53  2011.55  2028.43
                             2064.44  2124.47  2135.05  2169.61  2184.65
                             2243.16  3915.02  4215.46  4260.06  4281.42
                             4297.47  4352.87  4383.22  4385.83  4815.28
                             5242.48  5251.95  5267.88  5621.30  5645.14
                             5695.64  5701.77

 Zero-point correction=                           0.258170 (Hartree/Particle)
 Thermal correction to Energy=                    0.276615
 Thermal correction to Enthalpy=                  0.277559
 Thermal correction to Gibbs Free Energy=         0.213433
 Sum of electronic and zero-point Energies=          -1280.053306
 Sum of electronic and thermal Energies=             -1280.034860
 Sum of electronic and thermal Enthalpies=           -1280.033916
 Sum of electronic and thermal Free Energies=        -1280.098042

                     E (Thermal)             CV                S
                      KCal/Mol        Cal/Mol-Kelvin    Cal/Mol-Kelvin
 Total                  173.579             71.944            134.965
 Electronic               0.000              0.000              0.000
 Translational            0.889              2.981             42.745
 Rotational               0.889              2.981             33.126
 Vibrational            171.801             65.983             59.095
 Vibration     1          0.595              1.979              4.942
 Vibration     2          0.597              1.972              4.390
 Vibration     3          0.601              1.960              3.800
 Vibration     4          0.604              1.950              3.470
 Vibration     5          0.611              1.926              2.988
 Vibration     6          0.613              1.920              2.903
 Vibration     7          0.622              1.890              2.534
 Vibration     8          0.628              1.870              2.352
 Vibration     9          0.632              1.859              2.268
 Vibration    10          0.641              1.830              2.068
 Vibration    11          0.653              1.791              1.858
 Vibration    12          0.656              1.784              1.827
 Vibration    13          0.661              1.768              1.754
 Vibration    14          0.673              1.731              1.606
 Vibration    15          0.684              1.698              1.492
 Vibration    16          0.694              1.668              1.401
 Vibration    17          0.709              1.627              1.289
 Vibration    18          0.731              1.565              1.143
 Vibration    19          0.746              1.523              1.058
 Vibration    20          0.750              1.514              1.041
 Vibration    21          0.768              1.464              0.952
 Vibration    22          0.775              1.445              0.922
 Vibration    23          0.785              1.420              0.882
 Vibration    24          0.795              1.394              0.843
 Vibration    25          0.814              1.349              0.780
 Vibration    26          0.826              1.319              0.741
 Vibration    27          0.839              1.289              0.704
 Vibration    28          0.857              1.246              0.653
 Vibration    29          0.874              1.209              0.613
 Vibration    30          0.895              1.161              0.564
 Vibration    31          0.915              1.118              0.524
 Vibration    32          0.922              1.104              0.511

 Optimization completed.
    -- Stationary point found.
 Normal termination of Gaussian 16 at Tue Feb  6 08:06:32 2024.
