 Gaussian 16, Revision C.01,
 Gaussian 16:  ES64L-G16RevC.01  3-Jul-2019

 ----------------------------------------------------------------------
 # irc=(forward,calcfc,maxpoints=100,maxcycle=100) wb97xd/def2tzvpp geo
 m=connectivity
 ----------------------------------------------------------------------

 d mannitol unfreeze geom from prev modredundant run and perform a TS o
 pt
 ----------------------------------------------------------------------
 Symbolic Z-matrix:
 Charge =  0 Multiplicity = 1

 SCF Done:  E(RwB97XD) =  -1281.48943141     A.U. after   14 cycles
 SCF Done:  E(RwB97XD) =  -1281.48971541     A.U. after   11 cycles
 SCF Done:  E(RwB97XD) =  -1281.49073856     A.U. after   11 cycles
 SCF Done:  E(RwB97XD) =  -1281.49260661     A.U. after   11 cycles
 SCF Done:  E(RwB97XD) =  -1281.49525533     A.U. after   11 cycles
 SCF Done:  E(RwB97XD) =  -1281.49843771     A.U. after   11 cycles
 SCF Done:  E(RwB97XD) =  -1281.50175420     A.U. after   11 cycles
 SCF Done:  E(RwB97XD) =  -1281.50486134     A.U. after   11 cycles
 SCF Done:  E(RwB97XD) =  -1281.50766200     A.U. after   10 cycles
 SCF Done:  E(RwB97XD) =  -1281.51019393     A.U. after   10 cycles
 SCF Done:  E(RwB97XD) =  -1281.55180190     A.U. after    9 cycles
 SCF Done:  E(RwB97XD) =  -1281.55187619     A.U. after   10 cycles
 SCF Done:  E(RwB97XD) =  -1281.55194721     A.U. after    9 cycles
 SCF Done:  E(RwB97XD) =  -1281.55195078     A.U. after   10 cycles
 SCF Done:  E(RwB97XD) =  -1281.55202363     A.U. after   10 cycles
 SCF Done:  E(RwB97XD) =  -1281.55209640     A.U. after   10 cycles
 SCF Done:  E(RwB97XD) =  -1281.55216633     A.U. after   10 cycles
 SCF Done:  E(RwB97XD) =  -1281.55223410     A.U. after   10 cycles
 SCF Done:  E(RwB97XD) =  -1281.55223607     A.U. after    9 cycles
 SCF Done:  E(RwB97XD) =  -1281.55230385     A.U. after    9 cycles

                          Input orientation:
 ---------------------------------------------------------------------
 Center     Atomic      Atomic             Coordinates (Angstroms)
 Number     Number       Type             X           Y           Z
 ---------------------------------------------------------------------
      1         14           0        2.427602   -1.290295    0.157973
      2          8           0        1.986957   -2.684190   -0.552815
      3          1           0        1.037625   -2.774619   -0.642370
      4          8           0        4.020297   -1.450782    0.516988
      5          1           0        4.393741   -2.323561    0.419215
      6          8           0        2.349239    0.032274   -0.832988
      7          1           0        3.203928    0.308949   -1.158325
      8          8           0        1.598368   -0.976163    1.531027
      9          1           0        2.112789   -1.008206    2.333593
     10          6           0       -1.119935   -0.195029    0.024927
     11          1           0       -0.966647   -0.300966    1.098095
     12          6           0       -0.789976    1.259702   -0.394249
     13          1           0       -1.724568    1.808460   -0.500521
     14          8           0       -0.223901   -1.095423   -0.611298
     15          1           0       -0.163651   -0.800216   -1.525904
     16          8           0       -0.160045    1.270124   -1.667882
     17          1           0        0.759542    1.002329   -1.535187
     18          6           0       -2.544056   -0.616616   -0.321158
     19          1           0       -2.664157   -0.581005   -1.414855
     20          6           0        0.049357    2.002857    0.648817
     21          1           0        0.866752    1.352862    0.981592
     22          6           0        0.681502    3.273201    0.077289
     23          1           0        1.028455    3.890155    0.909354
     24          1           0        1.569727    2.991852   -0.501775
     25          6           0       -2.813122   -2.036692    0.144925
     26          1           0       -2.128793   -2.730508   -0.347794
     27          1           0       -2.653973   -2.085559    1.228089
     28          8           0       -3.432911    0.279227    0.297571
     29          1           0       -4.309870   -0.102334    0.228051
     30          8           0       -0.836853    2.257968    1.721114
     31          1           0       -0.337109    2.593536    2.463411
     32          8           0       -0.184832    4.076030   -0.683468
     33          1           0       -0.396144    3.587601   -1.481136
     34          8           0       -4.161799   -2.328880   -0.181961
     35          1           0       -4.428449   -3.132465    0.259317
 ---------------------------------------------------------------------

 Alpha  occ. eigenvalues --  -66.32061 -19.26976 -19.26869 -19.26073 -19.25865
 Alpha  occ. eigenvalues --  -19.25794 -19.25743 -19.25079 -19.24364 -19.24228
 Alpha  occ. eigenvalues --  -19.23418 -10.33525 -10.33131 -10.33130 -10.33039
 Alpha  occ. eigenvalues --  -10.32581 -10.32033  -5.43711  -3.78317  -3.78153
 Alpha  occ. eigenvalues --   -3.78141  -1.16594  -1.14808  -1.14491  -1.13343
 Alpha  occ. eigenvalues --   -1.12161  -1.11753  -1.11386  -1.10990  -1.10722
 Alpha  occ. eigenvalues --   -1.10234  -0.87823  -0.84720  -0.80469  -0.74662
 Alpha  occ. eigenvalues --   -0.69930  -0.68970  -0.68578  -0.63645  -0.63150
 Alpha  occ. eigenvalues --   -0.62678  -0.61848  -0.61716  -0.60474  -0.59717
 Alpha  occ. eigenvalues --   -0.57582  -0.56933  -0.56125  -0.54421  -0.54041
 Alpha  occ. eigenvalues --   -0.52055  -0.50930  -0.50824  -0.49613  -0.49051
 Alpha  occ. eigenvalues --   -0.48409  -0.47614  -0.46593  -0.45591  -0.45146
 Alpha  occ. eigenvalues --   -0.44805  -0.44309  -0.43142  -0.43049  -0.42033
 Alpha  occ. eigenvalues --   -0.41544  -0.40557  -0.40112  -0.39395  -0.37776
 Alpha  occ. eigenvalues --   -0.37330  -0.36063  -0.35492  -0.33462
 Alpha virt. eigenvalues --    0.07263   0.10000   0.10539   0.11751   0.12077
 Alpha virt. eigenvalues --    0.13346   0.13923   0.14730   0.15847   0.16631
 Alpha virt. eigenvalues --    0.17336   0.18350   0.18970   0.19548   0.20521

 Mulliken charges:
               1
     1  Si   0.841373
     2  O   -0.393373
     3  H    0.210684
     4  O   -0.457391
     5  H    0.190904
     6  O   -0.393607
     7  H    0.181680
     8  O   -0.336906
     9  H    0.158568
    10  C    0.162466
    11  H    0.070419
    12  C    0.148058
    13  H    0.106208
    14  O   -0.440231
    15  H    0.199357
    16  O   -0.428374
    17  H    0.214360
    18  C    0.128526
    19  H    0.054544
    20  C    0.084788
    21  H    0.073995
    22  C    0.041855
    23  H    0.051294
    24  H    0.057471
    25  C   -0.023366
    26  H    0.075695
    27  H    0.082450
    28  O   -0.335393
    29  H    0.174600
    30  O   -0.320877
    31  H    0.152821
    32  O   -0.349772
    33  H    0.189166
    34  O   -0.341925
    35  H    0.169932
 Sum of Mulliken charges =  -0.00000

 Dipole moment (field-independent basis, Debye):
    X=              2.8454    Y=             -4.1345    Z=              1.4157  Tot=              5.2148
 Quadrupole moment (field-independent basis, Debye-Ang):
   XX=            -98.7065   YY=           -112.3713   ZZ=            -99.8862
   XY=             11.3378   XZ=              0.3364   YZ=             -1.4770

  Exact polarizability:       0.000       0.000       0.000       0.000       0.000       0.000
 Approx polarizability:     143.991      -1.496     138.604      -0.496       1.446     138.547

 Normal termination of Gaussian 16 at Thu Feb 22 09:58:14 2024.
