 Gaussian 16, Revision C.01,
 Gaussian 16:  ES64L-G16RevC.01  3-Jul-2019

 ---------------------------------------------
 # opt freq wb97xd/def2tzvpp geom=connectivity
 ---------------------------------------------

 -------------------------------------------------------
 Deprotonated PL2 ethylene glycol conformer optimization
 -------------------------------------------------------
 Symbolic Z-matrix:
 Charge = -2 Multiplicity = 1

 SCF Done:  E(RwB97XD) =  -822.953540953     A.U. after   15 cycles
 SCF Done:  E(RwB97XD) =  -822.973489890     A.U. after   15 cycles
 SCF Done:  E(RwB97XD) =  -822.980636523     A.U. after   14 cycles
 SCF Done:  E(RwB97XD) =  -822.981291079     A.U. after   13 cycles
 SCF Done:  E(RwB97XD) =  -822.981353182     A.U. after   11 cycles
 SCF Done:  E(RwB97XD) =  -822.981375639     A.U. after   11 cycles
 SCF Done:  E(RwB97XD) =  -822.981383608     A.U. after   10 cycles
 SCF Done:  E(RwB97XD) =  -822.981385946     A.U. after    8 cycles
 SCF Done:  E(RwB97XD) =  -822.981386555     A.U. after    9 cycles
 SCF Done:  E(RwB97XD) =  -822.981386640     A.U. after    8 cycles
 Optimization completed.
    -- Stationary point found.
 Normal termination of Gaussian 16 at Thu Oct 26 10:08:17 2023.

 ----------------------------------------------------------------------
 #N Geom=AllCheck Guess=TCheck SCRF=Check GenChk RwB97XD/def2TZVPP Freq
 ----------------------------------------------------------------------

 Structure from the checkpoint file:  "Deprotonated_PL2_EG.chk"
 -------------------------------------------------------
 Deprotonated PL2 ethylene glycol conformer optimization
 -------------------------------------------------------
 Charge = -2 Multiplicity = 1

                         Standard orientation:
 ---------------------------------------------------------------------
 Center     Atomic      Atomic             Coordinates (Angstroms)
 Number     Number       Type             X           Y           Z
 ---------------------------------------------------------------------
      1         14           0       -0.000093    0.660423   -0.000237
      2          8           0        1.538733    0.376903   -1.020226
      3          8           0       -0.798360   -0.361167   -1.213319
      4          8           0       -1.538785    0.378358    1.019503
      5          8           0        0.000400    2.224838   -0.000857
      6          8           0        0.798019   -0.360418    1.213413
      7          6           0        2.187892   -0.750651   -0.626739
      8          1           0        3.256897   -0.755147   -0.932964
      9          1           0        1.734520   -1.682161   -1.043745
     10          6           0        2.066921   -0.794426    0.900827
     11          1           0        2.245680   -1.813865    1.297333
     12          1           0        2.842336   -0.133580    1.341833
     13          6           0       -2.187783   -0.749894    0.627555
     14          1           0       -1.734101   -1.680665    1.045745
     15          1           0       -3.256709   -0.754148    0.933954
     16          6           0       -2.066931   -0.795542   -0.899986
     17          1           0       -2.245152   -1.815615   -1.295114
     18          1           0       -2.842827   -0.135776   -1.341793
 ---------------------------------------------------------------------

 SCF Done:  E(RwB97XD) =  -822.981386640     A.U. after    1 cycles

 The electronic state is 1-A.
 Alpha  occ. eigenvalues --  -65.92575 -18.89676 -18.89674 -18.86832 -18.86825
 Alpha  occ. eigenvalues --  -18.77299 -10.02637 -10.02635 -10.01897 -10.01894
 Alpha  occ. eigenvalues --   -5.03667  -3.38352  -3.38217  -3.37943  -0.80396
 Alpha  occ. eigenvalues --   -0.78397  -0.73938  -0.72616  -0.58980  -0.50528
 Alpha  occ. eigenvalues --   -0.49268  -0.38332  -0.37648  -0.28078  -0.27175
 Alpha  occ. eigenvalues --   -0.26494  -0.25265  -0.24638  -0.20498  -0.18466
 Alpha  occ. eigenvalues --   -0.17504  -0.17348  -0.15722  -0.07732  -0.06347
 Alpha  occ. eigenvalues --   -0.06271  -0.05248  -0.03730  -0.02972  -0.01336
 Alpha  occ. eigenvalues --   -0.00078   0.00019   0.03833   0.05455
 Alpha virt. eigenvalues --    0.36951   0.38158   0.40841   0.40973   0.42198
 Alpha virt. eigenvalues --    0.42263   0.43255   0.46469   0.47468   0.48340
 Alpha virt. eigenvalues --    0.50991   0.51234   0.53107   0.53251   0.53828

 Mulliken charges:
               1
     1  Si   0.691223
     2  O   -0.516440
     3  O   -0.461969
     4  O   -0.516310
     5  O   -0.831985
     6  O   -0.461969
     7  C    0.139080
     8  H   -0.064701
     9  H   -0.061892
    10  C    0.137838
    11  H   -0.059322
    12  H   -0.042307
    13  C    0.138953
    14  H   -0.061763
    15  H   -0.064608
    16  C    0.137863
    17  H   -0.059330
    18  H   -0.042359
 Sum of Mulliken charges =  -2.00000

 Dipole moment (field-independent basis, Debye):
    X=             -0.0027    Y=             -6.8729    Z=              0.0052  Tot=              6.8729
 Quadrupole moment (field-independent basis, Debye-Ang):
   XX=            -92.1923   YY=            -97.0122   ZZ=            -86.5834
   XY=              0.0016   XZ=              4.1213   YZ=              0.0023

  Exact polarizability:     116.894       0.001      99.827       2.868      -0.004      88.046
 Approx polarizability:     107.186       0.002     107.417       1.255      -0.008      93.699

                      1                      2                      3
                      A                      A                      A
 Frequencies --     67.0054               136.6432               140.5859
 Red. masses --      3.1211                 4.1729                 3.5493
 Frc consts  --      0.0083                 0.0459                 0.0413
 IR Inten    --      3.9591                 1.6150                 0.3440

                      4                      5                      6
                      A                      A                      A
 Frequencies --    172.8128               276.5167               281.2792
 Red. masses --      3.4052                 2.5622                 2.9167
 Frc consts  --      0.0599                 0.1154                 0.1360
 IR Inten    --      3.7573                 0.1529                 0.6430

                      7                      8                      9
                      A                      A                      A
 Frequencies --    312.8353               363.6805               373.1904
 Red. masses --      7.7084                 9.7556                 7.3318
 Frc consts  --      0.4445                 0.7602                 0.6016
 IR Inten    --      0.5742                 2.3657                 8.0440

                     10                     11                     12
                      A                      A                      A
 Frequencies --    376.2404               449.7104               482.2348
 Red. masses --      6.6844                12.8695                12.3192
 Frc consts  --      0.5575                 1.5335                 1.6879
 IR Inten    --      5.0730               380.2283                 9.5295

                     13                     14                     15
                      A                      A                      A
 Frequencies --    561.6178               596.8250               597.1730
 Red. masses --     11.7374                 5.4187                 6.7371
 Frc consts  --      2.1812                 1.1372                 1.4155
 IR Inten    --     28.4729               285.2183                 9.7246

                     16                     17                     18
                      A                      A                      A
 Frequencies --    639.0200               658.9914               914.6707
 Red. masses --      2.5558                 2.9680                 2.3536
 Frc consts  --      0.6149                 0.7594                 1.1601
 IR Inten    --      3.1418               128.1046                13.4289

                     19                     20                     21
                      A                      A                      A
 Frequencies --    915.4886               923.2035               929.1148
 Red. masses --      2.3228                 1.7794                 1.8011
 Frc consts  --      1.1470                 0.8935                 0.9160
 IR Inten    --      3.4119                18.8249                53.0214

                     22                     23                     24
                      A                      A                      A
 Frequencies --   1096.3777              1145.2858              1150.6657
 Red. masses --     17.8899                 2.5726                 2.2319
 Frc consts  --     12.6700                 1.9882                 1.7411
 IR Inten    --    353.0228               172.2655                18.1742

                     25                     26                     27
                      A                      A                      A
 Frequencies --   1169.0828              1179.6220              1183.9942
 Red. masses --      3.8995                 3.4103                 3.2270
 Frc consts  --      3.1402                 2.7960                 2.6653
 IR Inten    --      5.0678               102.6171               124.1459

                     28                     29                     30
                      A                      A                      A
 Frequencies --   1197.8512              1242.7507              1243.0487
 Red. masses --      2.9828                 1.2129                 1.2154
 Frc consts  --      2.5216                 1.1037                 1.1065
 IR Inten    --    116.0831                 1.3437                 9.5351

                     31                     32                     33
                      A                      A                      A
 Frequencies --   1248.4530              1250.5176              1367.0516
 Red. masses --      1.2422                 1.3273                 1.3544
 Frc consts  --      1.1407                 1.2229                 1.4913
 IR Inten    --     14.6426                20.0841                 7.7673

                     34                     35                     36
                      A                      A                      A
 Frequencies --   1374.4732              1378.0367              1379.3826
 Red. masses --      1.3931                 1.3422                 1.3583
 Frc consts  --      1.5506                 1.5017                 1.5227
 IR Inten    --     18.1186                35.0364                21.8172

                     37                     38                     39
                      A                      A                      A
 Frequencies --   1485.1673              1486.0463              1494.0279
 Red. masses --      1.0942                 1.0951                 1.0960
 Frc consts  --      1.4220                 1.4248                 1.4414
 IR Inten    --      4.4638                 5.9480                20.8937

                     40                     41                     42
                      A                      A                      A
 Frequencies --   1495.4730              2764.1380              2766.9180
 Red. masses --      1.0980                 1.0802                 1.0810
 Frc consts  --      1.4468                 4.8625                 4.8762
 IR Inten    --      4.8937                82.4577               216.3567

                     43                     44                     45
                      A                      A                      A
 Frequencies --   2810.7950              2811.1086              2845.8547
 Red. masses --      1.0638                 1.0650                 1.0789
 Frc consts  --      4.9518                 4.9585                 5.1482
 IR Inten    --    115.5506               331.4560               922.0666

                     46                     47                     48
                      A                      A                      A
 Frequencies --   2851.2435              2861.9237              2867.5174
 Red. masses --      1.0891                 1.0806                 1.0717
 Frc consts  --      5.2167                 5.2148                 5.1921
 IR Inten    --    109.4466               157.6989               513.6350

 - Thermochemistry -
 -------------------
 Temperature   298.150 Kelvin.  Pressure   1.00000 Atm.
 Atom     1 has atomic number 14 and mass  27.97693

 Molecular mass:   164.01410 amu.
 Principal axes and moments of inertia in atomic units:
                           1         2         3
     Eigenvalues --   935.711791741.498611818.83892
           X            0.99989   0.00001   0.01500
           Y           -0.00001   1.00000  -0.00003
           Z           -0.01500   0.00003   0.99989
 This molecule is an asymmetric top.
 Rotational symmetry number  1.
 Warning -- assumption of classical behavior for rotation
           may cause significant error
 Rotational temperatures (Kelvin)      0.09256     0.04974     0.04762
 Rotational constants (GHZ):           1.92874     1.03632     0.99225
 Zero-point vibrational energy     342823.7 (Joules/Mol)
                                   81.93683 (Kcal/Mol)
 Warning -- explicit consideration of  15 degrees of freedom as
           vibrations may cause significant error
 Vibrational temperatures:     96.41   196.60   202.27   248.64   397.85
          (Kelvin)            404.70   450.10   523.26   536.94   541.33
                              647.03   693.83   808.04   858.70   859.20
                              919.41   948.14  1316.01  1317.18  1328.28
                             1336.79  1577.44  1647.81  1655.55  1682.05
                             1697.21  1703.50  1723.44  1788.04  1788.47
                             1796.25  1799.22  1966.88  1977.56  1982.69
                             1984.62  2136.82  2138.09  2149.57  2151.65
                             3976.98  3980.98  4044.11  4044.56  4094.55
                             4102.30  4117.67  4125.72

 Zero-point correction=                           0.130575 (Hartree/Particle)
 Thermal correction to Energy=                    0.140178
 Thermal correction to Enthalpy=                  0.141122
 Thermal correction to Gibbs Free Energy=         0.095788
 Sum of electronic and zero-point Energies=           -822.850812
 Sum of electronic and thermal Energies=              -822.841209
 Sum of electronic and thermal Enthalpies=            -822.840265
 Sum of electronic and thermal Free Energies=         -822.885598

                     E (Thermal)             CV                S
                      KCal/Mol        Cal/Mol-Kelvin    Cal/Mol-Kelvin
 Total                   87.963             36.012             95.413
 Electronic               0.000              0.000              0.000
 Translational            0.889              2.981             41.193
 Rotational               0.889              2.981             29.473
 Vibrational             86.185             30.050             24.747
 Vibration     1          0.598              1.970              4.239
 Vibration     2          0.614              1.917              2.850
 Vibration     3          0.615              1.913              2.796
 Vibration     4          0.626              1.876              2.405
 Vibration     5          0.678              1.717              1.555
 Vibration     6          0.681              1.708              1.526
 Vibration     7          0.701              1.649              1.347
 Vibration     8          0.737              1.547              1.106
 Vibration     9          0.745              1.527              1.067
 Vibration    10          0.747              1.521              1.054
 Vibration    11          0.809              1.362              0.797
 Vibration    12          0.838              1.289              0.704
 Vibration    13          0.917              1.114              0.521
 Vibration    14          0.955              1.039              0.455
 Vibration    15          0.955              1.038              0.455

                           ! Non-Optimized Parameters !
 Normal termination of Gaussian 16 at Thu Oct 26 10:27:05 2023.
