 Gaussian 16, Revision C.01,
 Gaussian 16:  ES64L-G16RevC.01  3-Jul-2019

 ----------------------------------------------------
 # opt=calcfc freq wb97xd/def2tzvpp geom=connectivity
 ----------------------------------------------------

 -------------------------------------------------------------------
 TS Opt product from SN1 like product derived from imag frequency TS
 -------------------------------------------------------------------
 Symbolic Z-matrix:
 Charge =  0 Multiplicity = 1

 SCF Done:  E(RwB97XD) =  -746.853561332     A.U. after   14 cycles
 SCF Done:  E(RwB97XD) =  -746.854818946     A.U. after   11 cycles
 SCF Done:  E(RwB97XD) =  -746.854852731     A.U. after   10 cycles
 SCF Done:  E(RwB97XD) =  -746.854853768     A.U. after    8 cycles
 Optimization completed.
    -- Stationary point found.
 Normal termination of Gaussian 16 at Wed Apr 10 03:34:31 2024.

 ----------------------------------------------------------------------
 #N Geom=AllCheck Guess=TCheck SCRF=Check GenChk RwB97XD/def2TZVPP Freq
 ----------------------------------------------------------------------

 Structure from the checkpoint file:  "QL_zwitterion_opt.chk"
 -------------------------------------------------------------------
 TS Opt product from SN1 like product derived from imag frequency TS
 -------------------------------------------------------------------
 Charge =  0 Multiplicity = 1

                         Standard orientation:
 ---------------------------------------------------------------------
 Center     Atomic      Atomic             Coordinates (Angstroms)
 Number     Number       Type             X           Y           Z
 ---------------------------------------------------------------------
      1         14           0        1.061543    0.223120    0.136701
      2          8           0        2.261908    0.284599   -0.954018
      3          1           0        2.848756   -0.466162   -1.009259
      4          8           0        0.345001    1.494591    0.601288
      5          8           0        1.351807   -1.036349    1.143885
      6          1           0        1.128071   -0.879434    2.059056
      7          6           0       -1.398864   -1.239626   -0.325653
      8          1           0       -1.015073   -2.033009    0.308677
      9          1           0       -1.981177   -1.664961   -1.140880
     10          6           0       -2.183993   -0.169983    0.441128
     11          1           0       -1.767371   -0.047000    1.443523
     12          1           0       -3.219167   -0.501319    0.539345
     13          8           0       -0.238884   -0.620688   -0.955901
     14          1           0       -0.617601    0.124824   -1.453328
     15          8           0       -2.145737    1.040819   -0.262020
     16          1           0       -1.333643    1.497249    0.060326
 ---------------------------------------------------------------------

 SCF Done:  E(RwB97XD) =  -746.854853768     A.U. after    1 cycles

 The electronic state is 1-A.
 Alpha  occ. eigenvalues --  -66.29749 -19.35391 -19.26693 -19.25880 -19.24665
 Alpha  occ. eigenvalues --  -19.16814 -10.37536 -10.34705  -5.41694  -3.76458
 Alpha  occ. eigenvalues --   -3.76142  -3.75856  -1.22626  -1.13351  -1.12715
 Alpha  occ. eigenvalues --   -1.11018  -0.99176  -0.87497  -0.75330  -0.69864
 Alpha  occ. eigenvalues --   -0.65101  -0.62809  -0.62179  -0.60638  -0.58067
 Alpha  occ. eigenvalues --   -0.52557  -0.51423  -0.50337  -0.48081  -0.47080
 Alpha  occ. eigenvalues --   -0.44574  -0.43265  -0.42862  -0.40863  -0.38007
 Alpha  occ. eigenvalues --   -0.35588  -0.35114
 Alpha virt. eigenvalues --    0.07051   0.10160   0.11832   0.13331   0.15424
 Alpha virt. eigenvalues --    0.16023   0.16578   0.16951   0.19577   0.20869
 Alpha virt. eigenvalues --    0.21695   0.23838   0.24925   0.26498   0.27382

 Mulliken charges:
               1
     1  Si   0.762726
     2  O   -0.376764
     3  H    0.178202
     4  O   -0.647417
     5  O   -0.411592
     6  H    0.195137
     7  C   -0.026283
     8  H    0.103733
     9  H    0.116043
    10  C    0.045324
    11  H    0.083587
    12  H    0.082394
    13  O   -0.133336
    14  H    0.205706
    15  O   -0.421816
    16  H    0.244355
 Sum of Mulliken charges =  -0.00000

 Dipole moment (field-independent basis, Debye):
    X=             -0.8429    Y=             -5.2781    Z=             -0.1625  Tot=              5.3475
 Quadrupole moment (field-independent basis, Debye-Ang):
   XX=            -51.5134   YY=            -59.8481   ZZ=            -48.3963
   XY=              2.2069   XZ=             -0.2454   YZ=             -1.0713

  Exact polarizability:      71.589       0.642      61.809      -1.382      -0.426      58.783
 Approx polarizability:      68.901      -1.144      68.320      -1.185      -1.274      65.303

                      1                      2                      3
                      A                      A                      A
 Frequencies --     48.9830               160.6938               185.0245
 Red. masses --      5.4265                 4.9261                 4.5138
 Frc consts  --      0.0077                 0.0749                 0.0910
 IR Inten    --      0.3363                 1.2526                11.3322

                      4                      5                      6
                      A                      A                      A
 Frequencies --    190.0053               217.0582               254.1019
 Red. masses --      2.5675                 3.3199                 4.1093
 Frc consts  --      0.0546                 0.0922                 0.1563
 IR Inten    --     10.7937                11.3363                14.3646

                      7                      8                      9
                      A                      A                      A
 Frequencies --    300.3979               303.9062               330.8413
 Red. masses --      1.2232                 3.7222                 2.4618
 Frc consts  --      0.0650                 0.2025                 0.1588
 IR Inten    --     81.9434                52.1586                 8.2252

                     10                     11                     12
                      A                      A                      A
 Frequencies --    337.5463               357.8958               418.2308
 Red. masses --      2.5567                 2.3514                 5.6300
 Frc consts  --      0.1716                 0.1775                 0.5802
 IR Inten    --     31.5702                12.8645                 9.6827

                     13                     14                     15
                      A                      A                      A
 Frequencies --    477.2291               577.1697               729.7827
 Red. masses --      8.1795                 2.6646                 1.3044
 Frc consts  --      1.0976                 0.5230                 0.4093
 IR Inten    --    349.0505                 3.6394               209.7075

                     16                     17                     18
                      A                      A                      A
 Frequencies --    794.8059               843.2391               858.4211
 Red. masses --      4.4330                 1.3865                 1.5277
 Frc consts  --      1.6499                 0.5808                 0.6633
 IR Inten    --    154.5083               106.0144               162.0489

                     19                     20                     21
                      A                      A                      A
 Frequencies --    865.8176               894.6785               962.6425
 Red. masses --      1.7446                 2.0540                 4.7416
 Frc consts  --      0.7705                 0.9687                 2.5888
 IR Inten    --     32.4657                30.1434               112.4488

                     22                     23                     24
                      A                      A                      A
 Frequencies --    967.2330              1041.3521              1100.9017
 Red. masses --      1.2995                 3.4700                 1.9294
 Frc consts  --      0.7163                 2.2171                 1.3777
 IR Inten    --     19.2846               100.5770                58.9641

                     25                     26                     27
                      A                      A                      A
 Frequencies --   1141.8344              1227.0075              1250.8069
 Red. masses --      3.0071                 3.8977                 1.3364
 Frc consts  --      2.3100                 3.4574                 1.2319
 IR Inten    --     25.3496               244.1971                49.8411

                     28                     29                     30
                      A                      A                      A
 Frequencies --   1278.1864              1392.5384              1416.3186
 Red. masses --      1.1857                 1.2471                 1.2310
 Frc consts  --      1.1413                 1.4248                 1.4549
 IR Inten    --      2.3251                 4.9824                 6.8588

                     31                     32                     33
                      A                      A                      A
 Frequencies --   1446.0748              1498.0851              1510.1692
 Red. masses --      1.1856                 1.1437                 1.0992
 Frc consts  --      1.4608                 1.5122                 1.4771
 IR Inten    --     62.7296                24.5077                19.6385

                     34                     35                     36
                      A                      A                      A
 Frequencies --   1514.6800              3056.7476              3100.8245
 Red. masses --      1.0929                 1.0588                 1.0842
 Frc consts  --      1.4773                 5.8287                 6.1418
 IR Inten    --     18.0615                36.7421                 3.5560

                     37                     38                     39
                      A                      A                      A
 Frequencies --   3113.9891              3182.7900              3374.8799
 Red. masses --      1.0840                 1.1087                 1.0691
 Frc consts  --      6.1934                 6.6172                 7.1747
 IR Inten    --     45.4836                 5.8111               607.6353

                     40                     41                     42
                      A                      A                      A
 Frequencies --   3681.2395              3968.0873              3975.1895
 Red. masses --      1.0638                 1.0662                 1.0665
 Frc consts  --      8.4941                 9.8912                 9.9292
 IR Inten    --    133.6699               101.6456                95.9698

 - Thermochemistry -
 -------------------
 Temperature   298.150 Kelvin.  Pressure   1.00000 Atm.
 Atom     1 has atomic number 14 and mass  27.97693

 Molecular mass:   140.01410 amu.
 Principal axes and moments of inertia in atomic units:
                           1         2         3
     Eigenvalues --   644.721841435.981821564.20760
           X            0.99989   0.01251  -0.00827
           Y           -0.01263   0.99981  -0.01502
           Z            0.00808   0.01513   0.99985
 This molecule is an asymmetric top.
 Rotational symmetry number  1.
 Warning -- assumption of classical behavior for rotation
           may cause significant error
 Rotational temperatures (Kelvin)      0.13434     0.06032     0.05537
 Rotational constants (GHZ):           2.79926     1.25680     1.15377
 Zero-point vibrational energy     325069.7 (Joules/Mol)
                                   77.69352 (Kcal/Mol)
 Warning -- explicit consideration of  14 degrees of freedom as
           vibrations may cause significant error
 Vibrational temperatures:     70.48   231.20   266.21   273.38   312.30
          (Kelvin)            365.60   432.21   437.25   476.01   485.65
                              514.93   601.74   686.63   830.42  1049.99
                             1143.55  1213.23  1235.08  1245.72  1287.24
                             1385.03  1391.63  1498.27  1583.95  1642.84
                             1765.39  1799.63  1839.03  2003.55  2037.77
                             2080.58  2155.41  2172.80  2179.29  4397.98
                             4461.39  4480.34  4579.32  4855.70  5296.48
                             5709.19  5719.41

 Zero-point correction=                           0.123813 (Hartree/Particle)
 Thermal correction to Energy=                    0.133601
 Thermal correction to Enthalpy=                  0.134545
 Thermal correction to Gibbs Free Energy=         0.089255
 Sum of electronic and zero-point Energies=           -746.731041
 Sum of electronic and thermal Energies=              -746.721253
 Sum of electronic and thermal Enthalpies=            -746.720309
 Sum of electronic and thermal Free Energies=         -746.765598

                     E (Thermal)             CV                S
                      KCal/Mol        Cal/Mol-Kelvin    Cal/Mol-Kelvin
 Total                   83.836             35.402             95.320
 Electronic               0.000              0.000              0.000
 Translational            0.889              2.981             40.721
 Rotational               0.889              2.981             28.761
 Vibrational             82.058             29.441             25.837
 Vibration     1          0.595              1.978              4.858
 Vibration     2          0.622              1.891              2.542
 Vibration     3          0.631              1.860              2.277
 Vibration     4          0.633              1.854              2.228
 Vibration     5          0.646              1.815              1.983
 Vibration     6          0.665              1.756              1.702
 Vibration     7          0.693              1.673              1.415
 Vibration     8          0.695              1.666              1.395
 Vibration     9          0.713              1.614              1.256
 Vibration    10          0.718              1.600              1.224
 Vibration    11          0.733              1.559              1.131
 Vibration    12          0.781              1.431              0.898
 Vibration    13          0.834              1.301              0.718
 Vibration    14          0.934              1.081              0.491

 Optimization completed.
    -- Stationary point found.
 Normal termination of Gaussian 16 at Wed Apr 10 04:10:18 2024.
