 Gaussian 16, Revision C.01,
 Gaussian 16:  ES64L-G16RevC.01  3-Jul-2019

 ---------------------------------------------
 # opt freq wb97xd/def2tzvpp geom=connectivity
 ---------------------------------------------

 -------------------------------------------
 Bidentate QL1 complex with EG conformer opt
 -------------------------------------------
 Symbolic Z-matrix:
 Charge = -1 Multiplicity = 1

 SCF Done:  E(RwB97XD) =  -746.238187141     A.U. after   14 cycles
 SCF Done:  E(RwB97XD) =  -746.298042393     A.U. after   13 cycles
 SCF Done:  E(RwB97XD) =  -746.336921312     A.U. after   13 cycles
 SCF Done:  E(RwB97XD) =  -746.345801219     A.U. after   13 cycles
 SCF Done:  E(RwB97XD) =  -746.348666523     A.U. after   12 cycles
 SCF Done:  E(RwB97XD) =  -746.349850889     A.U. after   12 cycles
 SCF Done:  E(RwB97XD) =  -746.350633247     A.U. after   12 cycles
 SCF Done:  E(RwB97XD) =  -746.351491185     A.U. after   12 cycles
 SCF Done:  E(RwB97XD) =  -746.351995148     A.U. after   12 cycles
 SCF Done:  E(RwB97XD) =  -746.352477539     A.U. after   12 cycles
 SCF Done:  E(RwB97XD) =  -746.357667882     A.U. after   11 cycles
 SCF Done:  E(RwB97XD) =  -746.357701123     A.U. after   13 cycles
 SCF Done:  E(RwB97XD) =  -746.357726657     A.U. after   12 cycles
 SCF Done:  E(RwB97XD) =  -746.357733120     A.U. after   13 cycles
 SCF Done:  E(RwB97XD) =  -746.357755390     A.U. after   12 cycles
 SCF Done:  E(RwB97XD) =  -746.357760123     A.U. after    9 cycles
 SCF Done:  E(RwB97XD) =  -746.357769128     A.U. after   11 cycles
 SCF Done:  E(RwB97XD) =  -746.357769780     A.U. after    9 cycles
 SCF Done:  E(RwB97XD) =  -746.357769916     A.U. after    8 cycles
 Optimization completed.
    -- Stationary point found.
 Normal termination of Gaussian 16 at Wed Nov 15 12:11:03 2023.

 ----------------------------------------------------------------------
 #N Geom=AllCheck Guess=TCheck SCRF=Check GenChk RwB97XD/def2TZVPP Freq
 ----------------------------------------------------------------------

 Structure from the checkpoint file:  "PL1BidentConfSearch_6.chk"
 -------------------------------------------
 Bidentate QL1 complex with EG conformer opt
 -------------------------------------------
 Charge = -1 Multiplicity = 1

                         Standard orientation:
 ---------------------------------------------------------------------
 Center     Atomic      Atomic             Coordinates (Angstroms)
 Number     Number       Type             X           Y           Z
 ---------------------------------------------------------------------
      1         14           0       -0.573446   -0.067395    0.022562
      2          8           0       -1.879193    1.081940   -0.065298
      3          1           0       -1.533070    1.949660    0.122376
      4          8           0       -0.975877   -0.737679   -1.475004
      5          1           0       -1.725294   -0.235547   -1.790823
      6          8           0        0.538845    1.259463    0.085843
      7          8           0       -1.202318   -0.804465    1.401700
      8          1           0       -0.581180   -1.488183    1.647422
      9          8           0        0.862606   -1.150367    0.143344
     10          6           0        2.010463   -0.521169   -0.285535
     11          1           0        2.910374   -1.000327    0.126839
     12          1           0        2.099421   -0.541595   -1.387014
     13          6           0        1.887042    0.928490    0.188893
     14          1           0        2.497028    1.614136   -0.414343
     15          1           0        2.223429    1.010328    1.234847
 ---------------------------------------------------------------------

 SCF Done:  E(RwB97XD) =  -746.357769916     A.U. after    1 cycles

 The electronic state is 1-A.
 Alpha  occ. eigenvalues --  -66.11198 -19.05893 -19.04184 -19.04171 -19.03348
 Alpha  occ. eigenvalues --  -19.02385 -10.16935 -10.16313  -5.22275  -3.56875
 Alpha  occ. eigenvalues --   -3.56815  -3.56721  -0.96138  -0.91030  -0.89846
 Alpha  occ. eigenvalues --   -0.88962  -0.86420  -0.65351  -0.53351  -0.45664
 Alpha  occ. eigenvalues --   -0.42331  -0.40765  -0.40196  -0.37468  -0.35940
 Alpha  occ. eigenvalues --   -0.34126  -0.32448  -0.26738  -0.25434  -0.24537
 Alpha  occ. eigenvalues --   -0.23059  -0.22068  -0.21937  -0.19993  -0.18891
 Alpha  occ. eigenvalues --   -0.18272  -0.16049
 Alpha virt. eigenvalues --    0.25720   0.27408   0.28858   0.30128   0.31441
 Alpha virt. eigenvalues --    0.32355   0.33620   0.35093   0.38378   0.38855
 Alpha virt. eigenvalues --    0.40075   0.41583   0.42903   0.45005   0.45843

 Mulliken charges:
               1
     1  Si   0.842088
     2  O   -0.578524
     3  H    0.146556
     4  O   -0.446578
     5  H    0.153136
     6  O   -0.464149
     7  O   -0.443316
     8  H    0.149091
     9  O   -0.546013
    10  C    0.069358
    11  H    0.006571
    12  H    0.008122
    13  C    0.083320
    14  H    0.009274
    15  H    0.011063
 Sum of Mulliken charges =  -1.00000

 Dipole moment (field-independent basis, Debye):
    X=              3.2672    Y=              1.2495    Z=             -0.0781  Tot=              3.4989
 Quadrupole moment (field-independent basis, Debye-Ang):
   XX=            -67.0035   YY=            -61.9475   ZZ=            -60.8247
   XY=              0.4148   XZ=              3.3030   YZ=             -2.3137

  Exact polarizability:      76.650       0.373      64.063       0.050      -0.125      63.112
 Approx polarizability:      74.003      -0.076      68.476       0.203      -0.979      66.963

                      1                      2                      3
                      A                      A                      A
 Frequencies --     60.2468               135.7257               183.2488
 Red. masses --      3.5162                 3.1726                 2.6621
 Frc consts  --      0.0075                 0.0344                 0.0527
 IR Inten    --     16.9471                 3.6068                 9.9729

                      4                      5                      6
                      A                      A                      A
 Frequencies --    220.1251               265.0180               361.1381
 Red. masses --      1.9273                 2.0731                 4.0836
 Frc consts  --      0.0550                 0.0858                 0.3138
 IR Inten    --     17.8359                10.9748                 5.4769

                      7                      8                      9
                      A                      A                      A
 Frequencies --    379.0225               384.7953               432.6101
 Red. masses --      4.5608                 4.3518                 6.7199
 Frc consts  --      0.3860                 0.3796                 0.7410
 IR Inten    --     20.1691                21.9977                23.6431

                     10                     11                     12
                      A                      A                      A
 Frequencies --    441.3664               518.5721               548.3964
 Red. masses --      7.7391                 2.4712                 1.1741
 Frc consts  --      0.8883                 0.3915                 0.2080
 IR Inten    --     18.7249                 7.1993                47.3846

                     13                     14                     15
                      A                      A                      A
 Frequencies --    562.3131               635.0339               663.5276
 Red. masses --      1.8713                 3.1759                 4.8308
 Frc consts  --      0.3486                 0.7546                 1.2531
 IR Inten    --    102.4315                24.3268                36.2056

                     16                     17                     18
                      A                      A                      A
 Frequencies --    698.9889               782.3604               864.9828
 Red. masses --      9.2285                 6.2302                15.5262
 Frc consts  --      2.6566                 2.2468                 6.8443
 IR Inten    --    267.7991               218.7278               282.5965

                     19                     20                     21
                      A                      A                      A
 Frequencies --    919.9132               934.1047               963.4162
 Red. masses --      1.6908                 2.3638                 1.2980
 Frc consts  --      0.8430                 1.2152                 0.7098
 IR Inten    --     64.1743                15.3572               182.7911

                     22                     23                     24
                      A                      A                      A
 Frequencies --   1009.1192              1058.2858              1150.3708
 Red. masses --      1.1493                 1.2709                 2.6247
 Frc consts  --      0.6895                 0.8386                 2.0465
 IR Inten    --    106.6019               374.2746                80.6416

                     25                     26                     27
                      A                      A                      A
 Frequencies --   1172.0144              1189.0332              1260.9103
 Red. masses --      3.5777                 3.5935                 1.1755
 Frc consts  --      2.8955                 2.9933                 1.1011
 IR Inten    --      6.0315               150.5768                 4.6086

                     28                     29                     30
                      A                      A                      A
 Frequencies --   1261.7809              1379.2465              1393.1627
 Red. masses --      1.1879                 1.3274                 1.3284
 Frc consts  --      1.1142                 1.4877                 1.5191
 IR Inten    --     13.1846                 8.6336                 8.5682

                     31                     32                     33
                      A                      A                      A
 Frequencies --   1509.7869              1516.3935              2906.8205
 Red. masses --      1.0894                 1.0953                 1.0721
 Frc consts  --      1.4630                 1.4840                 5.3371
 IR Inten    --      0.1556                 3.6125               111.1406

                     34                     35                     36
                      A                      A                      A
 Frequencies --   2939.5812              2978.4860              2997.9668
 Red. masses --      1.0666                 1.0847                 1.0955
 Frc consts  --      5.4304                 5.6694                 5.8010
 IR Inten    --    102.3988               223.2559               148.3986

                     37                     38                     39
                      A                      A                      A
 Frequencies --   3939.1639              3941.3172              3981.7767
 Red. masses --      1.0644                 1.0645                 1.0654
 Frc consts  --      9.7310                 9.7429                 9.9522
 IR Inten    --     30.6439                 9.2072                16.5324

 - Thermochemistry -
 -------------------
 Temperature   298.150 Kelvin.  Pressure   1.00000 Atm.
 Atom     1 has atomic number 14 and mass  27.97693

 Molecular mass:   139.00628 amu.
 Principal axes and moments of inertia in atomic units:
                           1         2         3
     Eigenvalues --   667.473671140.338161252.23567
           X            0.99997   0.00437   0.00656
           Y           -0.00425   0.99982  -0.01867
           Z           -0.00664   0.01864   0.99980
 This molecule is an asymmetric top.
 Rotational symmetry number  1.
 Warning -- assumption of classical behavior for rotation
           may cause significant error
 Rotational temperatures (Kelvin)      0.12976     0.07595     0.06917
 Rotational constants (GHZ):           2.70384     1.58264     1.44122
 Zero-point vibrational energy     290334.4 (Joules/Mol)
                                   69.39159 (Kcal/Mol)
 Warning -- explicit consideration of  13 degrees of freedom as
           vibrations may cause significant error
 Vibrational temperatures:     86.68   195.28   263.65   316.71   381.30
          (Kelvin)            519.60   545.33   553.63   622.43   635.03
                              746.11   789.02   809.04   913.67   954.67
                             1005.69  1125.64  1244.52  1323.55  1343.97
                             1386.14  1451.90  1522.64  1655.13  1686.27
                             1710.75  1814.17  1815.42  1984.43  2004.45
                             2172.25  2181.75  4182.27  4229.40  4285.38
                             4313.41  5667.58  5670.68  5728.89

 Zero-point correction=                           0.110583 (Hartree/Particle)
 Thermal correction to Energy=                    0.119459
 Thermal correction to Enthalpy=                  0.120403
 Thermal correction to Gibbs Free Energy=         0.077168
 Sum of electronic and zero-point Energies=           -746.247187
 Sum of electronic and thermal Energies=              -746.238311
 Sum of electronic and thermal Enthalpies=            -746.237367
 Sum of electronic and thermal Free Energies=         -746.280602

                     E (Thermal)             CV                S
                      KCal/Mol        Cal/Mol-Kelvin    Cal/Mol-Kelvin
 Total                   74.961             33.407             90.996
 Electronic               0.000              0.000              0.000
 Translational            0.889              2.981             40.700
 Rotational               0.889              2.981             28.346
 Vibrational             73.184             27.445             21.951
 Vibration     1          0.597              1.973              4.449
 Vibration     2          0.614              1.918              2.863
 Vibration     3          0.631              1.863              2.295
 Vibration     4          0.647              1.810              1.958
 Vibration     5          0.671              1.737              1.628
 Vibration     6          0.735              1.552              1.117
 Vibration     7          0.749              1.515              1.043
 Vibration     8          0.754              1.503              1.020
 Vibration     9          0.793              1.399              0.850
 Vibration    10          0.801              1.380              0.822
 Vibration    11          0.874              1.209              0.613
 Vibration    12          0.904              1.143              0.548
 Vibration    13          0.918              1.113              0.519

 Optimization completed.
    -- Stationary point found.
 Normal termination of Gaussian 16 at Wed Nov 15 12:19:39 2023.
