 Gaussian 16, Revision C.01,
 Gaussian 16:  ES64L-G16RevC.01  3-Jul-2019

 ---------------------------------------------
 # opt freq wb97xd/def2tzvpp geom=connectivity
 ---------------------------------------------

 -------------------------------------------
 Once Deprotonated Silicate Monomer Opt Freq
 -------------------------------------------
 Symbolic Z-matrix:
 Charge = -1 Multiplicity = 1

 SCF Done:  E(RwB97XD) =  -592.486967814     A.U. after   14 cycles
 SCF Done:  E(RwB97XD) =  -592.486989000     A.U. after   10 cycles
 SCF Done:  E(RwB97XD) =  -592.486996823     A.U. after    9 cycles
 SCF Done:  E(RwB97XD) =  -592.487001204     A.U. after    9 cycles
 SCF Done:  E(RwB97XD) =  -592.487014706     A.U. after   11 cycles
 SCF Done:  E(RwB97XD) =  -592.487040687     A.U. after   12 cycles
 SCF Done:  E(RwB97XD) =  -592.487093949     A.U. after   12 cycles
 SCF Done:  E(RwB97XD) =  -592.487139765     A.U. after   12 cycles
 SCF Done:  E(RwB97XD) =  -592.487253052     A.U. after   13 cycles
 SCF Done:  E(RwB97XD) =  -592.487422765     A.U. after   12 cycles
 SCF Done:  E(RwB97XD) =  -592.488350076     A.U. after   12 cycles
 SCF Done:  E(RwB97XD) =  -592.488342881     A.U. after   12 cycles
 SCF Done:  E(RwB97XD) =  -592.488394586     A.U. after   12 cycles
 SCF Done:  E(RwB97XD) =  -592.488400369     A.U. after   11 cycles
 SCF Done:  E(RwB97XD) =  -592.488405516     A.U. after   11 cycles
 SCF Done:  E(RwB97XD) =  -592.488405935     A.U. after   11 cycles
 SCF Done:  E(RwB97XD) =  -592.488404024     A.U. after   10 cycles
 SCF Done:  E(RwB97XD) =  -592.488406353     A.U. after   10 cycles
 SCF Done:  E(RwB97XD) =  -592.488404611     A.U. after    8 cycles
 Optimization completed.
    -- Stationary point found.
 Normal termination of Gaussian 16 at Thu Oct 26 09:56:36 2023.

 ----------------------------------------------------------------------
 #N Geom=AllCheck Guess=TCheck SCRF=Check GenChk RwB97XD/def2TZVPP Freq
 ----------------------------------------------------------------------

 Structure from the checkpoint file:  "OnceDeprotonatedSilicateMonomer_cont.chk"
 -------------------------------------------
 Once Deprotonated Silicate Monomer Opt Freq
 -------------------------------------------
 Charge = -1 Multiplicity = 1

                         Standard orientation:
 ---------------------------------------------------------------------
 Center     Atomic      Atomic             Coordinates (Angstroms)
 Number     Number       Type             X           Y           Z
 ---------------------------------------------------------------------
      1         14           0        0.000115    0.000687   -0.102229
      2          8           0        0.161881   -1.519565    0.605736
      3          1           0        0.538491   -2.100951   -0.050910
      4          8           0       -1.396098    0.610277    0.617255
      5          1           0       -2.086300    0.591789   -0.041781
      6          8           0        1.228796    0.895083    0.625346
      7          1           0        1.555589    1.511024   -0.026499
      8          8           0        0.004248    0.012771   -1.654538
 ---------------------------------------------------------------------

 SCF Done:  E(RwB97XD) =  -592.488404611     A.U. after    1 cycles

 The electronic state is 1-A.
 Alpha  occ. eigenvalues --  -66.06891 -19.04812 -19.04808 -19.04805 -18.94785
 Alpha  occ. eigenvalues --   -5.18718  -3.53263  -3.53263  -3.53039  -0.92344
 Alpha  occ. eigenvalues --   -0.89511  -0.89509  -0.76267  -0.45752  -0.37906
 Alpha  occ. eigenvalues --   -0.37878  -0.31015  -0.27898  -0.27883  -0.23298
 Alpha  occ. eigenvalues --   -0.23288  -0.19936  -0.18680  -0.13355  -0.13351
 Alpha virt. eigenvalues --    0.26131   0.30149   0.30163   0.37156   0.39247
 Alpha virt. eigenvalues --    0.39275   0.41686   0.51132   0.51698   0.51707
 Alpha virt. eigenvalues --    0.55244   0.61468   0.61498   0.66310   0.67218

 Mulliken charges:
               1
     1  Si   0.736313
     2  O   -0.469501
     3  H    0.157176
     4  O   -0.469923
     5  H    0.157392
     6  O   -0.469807
     7  H    0.157359
     8  O   -0.799009
 Sum of Mulliken charges =  -1.00000

 Dipole moment (field-independent basis, Debye):
    X=              0.0092    Y=             -0.0061    Z=              0.7459  Tot=              0.7459
 Quadrupole moment (field-independent basis, Debye-Ang):
   XX=            -37.1968   YY=            -37.2182   ZZ=            -52.7556
   XY=             -0.0370   XZ=              0.0421   YZ=              0.1045

  Exact polarizability:      40.110      -0.019      40.081      -0.007      -0.004      39.592
 Approx polarizability:      39.050      -0.012      39.027      -0.019      -0.034      42.253

                      1                      2                      3
                      A                      A                      A
 Frequencies --    122.3850               129.6399               162.6621
 Red. masses --      1.5779                 1.6015                 1.1655
 Frc consts  --      0.0139                 0.0159                 0.0182
 IR Inten    --     44.4132                43.4989                30.8905

                      4                      5                      6
                      A                      A                      A
 Frequencies --    313.0060               313.5812               364.4669
 Red. masses --      2.1805                 2.1615                 4.5853
 Frc consts  --      0.1259                 0.1252                 0.3589
 IR Inten    --     39.9892                40.0452                 3.0418

                      7                      8                      9
                      A                      A                      A
 Frequencies --    399.2103               399.6829               725.2389
 Red. masses --      7.7406                 7.7886                 6.9084
 Frc consts  --      0.7268                 0.7331                 2.1409
 IR Inten    --     93.5519                93.9878                 8.1761

                     10                     11                     12
                      A                      A                      A
 Frequencies --    813.9034               814.3074               916.7151
 Red. masses --      7.1289                 7.1225                 1.3069
 Frc consts  --      2.7824                 2.7826                 0.6471
 IR Inten    --    356.7946               355.7528                38.7233

                     13                     14                     15
                      A                      A                      A
 Frequencies --    917.2102               940.6978              1161.1230
 Red. masses --      1.3038                 1.3388                 9.7465
 Frc consts  --      0.6462                 0.6980                 7.7420
 IR Inten    --     40.8148                59.9628               338.6423

                     16                     17                     18
                      A                      A                      A
 Frequencies --   3967.2125              3967.5084              3968.2977
 Red. masses --      1.0651                 1.0652                 1.0653
 Frc consts  --      9.8770                 9.8792                 9.8843
 IR Inten    --     37.1093                30.0832                20.1879

 - Thermochemistry -
 -------------------
 Temperature   298.150 Kelvin.  Pressure   1.00000 Atm.
 Atom     1 has atomic number 14 and mass  27.97693

 Molecular mass:    94.98006 amu.
 Principal axes and moments of inertia in atomic units:
                           1         2         3
     Eigenvalues --   446.76196 446.97896 448.80603
           X            0.95717  -0.28796   0.03011
           Y            0.28484   0.95521   0.08030
           Z           -0.05188  -0.06829   0.99632
 This molecule is an asymmetric top.
 Rotational symmetry number  1.
 Warning -- assumption of classical behavior for rotation
           may cause significant error
 Rotational temperatures (Kelvin)      0.19387     0.19378     0.19299
 Rotational constants (GHZ):           4.03960     4.03764     4.02121
 Zero-point vibrational energy     122000.2 (Joules/Mol)
                                   29.15876 (Kcal/Mol)
 Warning -- explicit consideration of   8 degrees of freedom as
           vibrations may cause significant error
 Vibrational temperatures:    176.08   186.52   234.03   450.35   451.17
          (Kelvin)            524.39   574.37   575.05  1043.46  1171.03
                             1171.61  1318.95  1319.66  1353.45  1670.60
                             5707.93  5708.36  5709.50

 Zero-point correction=                           0.046467 (Hartree/Particle)
 Thermal correction to Energy=                    0.053486
 Thermal correction to Enthalpy=                  0.054430
 Thermal correction to Gibbs Free Energy=         0.015985
 Sum of electronic and zero-point Energies=           -592.441937
 Sum of electronic and thermal Energies=              -592.434919
 Sum of electronic and thermal Enthalpies=            -592.433975
 Sum of electronic and thermal Free Energies=         -592.472420

                     E (Thermal)             CV                S
                      KCal/Mol        Cal/Mol-Kelvin    Cal/Mol-Kelvin
 Total                   33.563             23.159             80.914
 Electronic               0.000              0.000              0.000
 Translational            0.889              2.981             39.564
 Rotational               0.889              2.981             25.997
 Vibrational             31.785             17.197             15.353
 Vibration     1          0.610              1.930              3.062
 Vibration     2          0.612              1.924              2.951
 Vibration     3          0.623              1.888              2.519
 Vibration     4          0.701              1.649              1.346
 Vibration     5          0.701              1.648              1.343
 Vibration     6          0.738              1.545              1.103
 Vibration     7          0.765              1.472              0.966
 Vibration     8          0.766              1.471              0.964

                           ! Non-Optimized Parameters !
 Normal termination of Gaussian 16 at Thu Oct 26 09:58:11 2023.
