 Gaussian 16, Revision C.01,
 Gaussian 16:  ES64L-G16RevC.01  3-Jul-2019

 ---------------------------------------------
 # opt freq wb97xd/Def2TZVPP geom=connectivity
 ---------------------------------------------

 -----------------------------------
 Silicate monomer neutral opt conf 1
 -----------------------------------
 Symbolic Z-matrix:
 Charge =  0 Multiplicity = 1

 SCF Done:  E(RwB97XD) =  -593.068096095     A.U. after   13 cycles
 SCF Done:  E(RwB97XD) =  -593.070810346     A.U. after   10 cycles
 SCF Done:  E(RwB97XD) =  -593.071477537     A.U. after   10 cycles
 SCF Done:  E(RwB97XD) =  -593.071500982     A.U. after    8 cycles
 SCF Done:  E(RwB97XD) =  -593.071507738     A.U. after    8 cycles
 SCF Done:  E(RwB97XD) =  -593.071521273     A.U. after    9 cycles
 SCF Done:  E(RwB97XD) =  -593.071538675     A.U. after   10 cycles
 SCF Done:  E(RwB97XD) =  -593.071549343     A.U. after   10 cycles
 SCF Done:  E(RwB97XD) =  -593.071552072     A.U. after    8 cycles
 Optimization completed.
    -- Stationary point found.
 Normal termination of Gaussian 16 at Tue Sep 19 21:43:15 2023.

 ----------------------------------------------------------------------
 #N Geom=AllCheck Guess=TCheck SCRF=Check GenChk RwB97XD/def2TZVPP Freq
 ----------------------------------------------------------------------

 Structure from the checkpoint file:  "SiOH4Conf1Opt.chk"
 -----------------------------------
 Silicate monomer neutral opt conf 1
 -----------------------------------
 Charge =  0 Multiplicity = 1

                         Standard orientation:
 ---------------------------------------------------------------------
 Center     Atomic      Atomic             Coordinates (Angstroms)
 Number     Number       Type             X           Y           Z
 ---------------------------------------------------------------------
      1         14           0        0.000000    0.000001    0.000000
      2          8           0       -1.025669   -0.921244    0.870260
      3          1           0       -1.809634   -0.501339    1.215614
      4          8           0        0.921242   -1.025670   -0.870261
      5          1           0        0.501335   -1.809639   -1.215604
      6          8           0       -0.921246    1.025670   -0.870257
      7          1           0       -0.501343    1.809635   -1.215612
      8          8           0        1.025672    0.921243    0.870259
      9          1           0        1.809645    0.501340    1.215596
 ---------------------------------------------------------------------

 SCF Done:  E(RwB97XD) =  -593.071552072     A.U. after    1 cycles

 The electronic state is 1-A.
 Alpha  occ. eigenvalues --  -66.30734 -19.25092 -19.25092 -19.25092 -19.25092
 Alpha  occ. eigenvalues --   -5.42473  -3.76975  -3.76960  -3.76960  -1.14026
 Alpha  occ. eigenvalues --   -1.10194  -1.10194  -1.09692  -0.68134  -0.61869
 Alpha  occ. eigenvalues --   -0.61869  -0.60944  -0.49079  -0.46583  -0.46248
 Alpha  occ. eigenvalues --   -0.46248  -0.44200  -0.43769  -0.40652  -0.40652
 Alpha virt. eigenvalues --    0.08646   0.13483   0.13483   0.13660   0.21371
 Alpha virt. eigenvalues --    0.21371   0.22352   0.26548   0.29984   0.30635
 Alpha virt. eigenvalues --    0.30635   0.35601   0.40051   0.44103   0.45069

 Mulliken charges:
               1
     1  Si   0.814203
     2  O   -0.387692
     3  H    0.184141
     4  O   -0.387693
     5  H    0.184142
     6  O   -0.387692
     7  H    0.184141
     8  O   -0.387692
     9  H    0.184142
 Sum of Mulliken charges =  -0.00000

 Dipole moment (field-independent basis, Debye):
    X=              0.0000    Y=              0.0000    Z=             -0.0000  Tot=              0.0000
 Quadrupole moment (field-independent basis, Debye-Ang):
   XX=            -32.7927   YY=            -32.7927   ZZ=            -33.1361
   XY=              0.0000   XZ=             -0.0000   YZ=             -0.0000

  Exact polarizability:      36.035      -0.000      36.035      -0.000      -0.000      33.993
 Approx polarizability:      36.748      -0.000      36.748      -0.000       0.000      33.726

                      1                      2                      3
                      A                      A                      A
 Frequencies --    189.2080               193.5830               267.5580
 Red. masses --      1.2942                 1.7487                 1.1382
 Frc consts  --      0.0273                 0.0386                 0.0480
 IR Inten    --      0.0000               170.8808                37.3628

                      4                      5                      6
                      A                      A                      A
 Frequencies --    267.5595               289.3207               352.3003
 Red. masses --      1.1382                 3.5337                 1.9469
 Frc consts  --      0.0480                 0.1743                 0.1424
 IR Inten    --     37.3618                 0.0000                16.6213

                      7                      8                      9
                      A                      A                      A
 Frequencies --    370.5215               370.5217               403.2191
 Red. masses --      4.0363                 4.0363                 5.7337
 Frc consts  --      0.3265                 0.3265                 0.5492
 IR Inten    --     63.1303                63.1302               163.1487

                     10                     11                     12
                      A                      A                      A
 Frequencies --    776.7611               835.4688               837.1619
 Red. masses --     12.8550                 1.0706                 1.4991
 Frc consts  --      4.5698                 0.4403                 0.6190
 IR Inten    --      0.0000                 0.0000               264.1624

                     13                     14                     15
                      A                      A                      A
 Frequencies --    839.2905               839.2907               947.4241
 Red. masses --      1.5514                 1.5514                 4.1496
 Frc consts  --      0.6439                 0.6439                 2.1945
 IR Inten    --    215.8920               215.8917               101.6419

                     16                     17                     18
                      A                      A                      A
 Frequencies --   1004.6786              1004.6790              3980.6290
 Red. masses --      4.2433                 4.2433                 1.0662
 Frc consts  --      2.5235                 2.5235                 9.9543
 IR Inten    --    265.5916               265.5917               148.3687

                     19                     20                     21
                      A                      A                      A
 Frequencies --   3980.6296              3981.5652              3983.8628
 Red. masses --      1.0662                 1.0657                 1.0674
 Frc consts  --      9.9543                 9.9541                 9.9809
 IR Inten    --    148.3680                78.7731                 0.0000

 - Thermochemistry -
 -------------------
 Temperature   298.150 Kelvin.  Pressure   1.00000 Atm.
 Atom     1 has atomic number 14 and mass  27.97693

 Molecular mass:    95.98789 amu.
 Principal axes and moments of inertia in atomic units:
                           1         2         3
     Eigenvalues --   436.82077 436.82101 485.02324
           X            0.99892   0.04639  -0.00000
           Y           -0.04639   0.99892  -0.00000
           Z            0.00000   0.00000   1.00000
 This molecule is an asymmetric top.
 Rotational symmetry number  1.
 Warning -- assumption of classical behavior for rotation
           may cause significant error
 Rotational temperatures (Kelvin)      0.19828     0.19828     0.17858
 Rotational constants (GHZ):           4.13154     4.13153     3.72094
 Zero-point vibrational energy     153811.3 (Joules/Mol)
                                   36.76177 (Kcal/Mol)
 Warning -- explicit consideration of   9 degrees of freedom as
           vibrations may cause significant error
 Vibrational temperatures:    272.23   278.52   384.96   384.96   416.27
          (Kelvin)            506.88   533.10   533.10   580.14  1117.59
                             1202.05  1204.49  1207.55  1207.55  1363.13
                             1445.51  1445.51  5727.24  5727.24  5728.58
                             5731.89

 Zero-point correction=                           0.058584 (Hartree/Particle)
 Thermal correction to Energy=                    0.065742
 Thermal correction to Enthalpy=                  0.066686
 Thermal correction to Gibbs Free Energy=         0.028553
 Sum of electronic and zero-point Energies=           -593.012968
 Sum of electronic and thermal Energies=              -593.005810
 Sum of electronic and thermal Enthalpies=            -593.004866
 Sum of electronic and thermal Free Energies=         -593.042999

                     E (Thermal)             CV                S
                      KCal/Mol        Cal/Mol-Kelvin    Cal/Mol-Kelvin
 Total                   41.254             25.158             80.258
 Electronic               0.000              0.000              0.000
 Translational            0.889              2.981             39.596
 Rotational               0.889              2.981             26.029
 Vibrational             39.476             19.196             14.633
 Vibration     1          0.633              1.855              2.236
 Vibration     2          0.635              1.849              2.193
 Vibration     3          0.673              1.733              1.612
 Vibration     4          0.673              1.733              1.612
 Vibration     5          0.686              1.694              1.478
 Vibration     6          0.729              1.571              1.156
 Vibration     7          0.743              1.533              1.078
 Vibration     8          0.743              1.533              1.078
 Vibration     9          0.769              1.463              0.951

 Optimization completed.
    -- Stationary point found.
 Normal termination of Gaussian 16 at Tue Sep 19 21:45:02 2023.
