 Gaussian 16, Revision C.01,
 Gaussian 16:  ES64L-G16RevC.01  3-Jul-2019

 ---------------------------------------------
 # opt freq wb97xd/Def2TZVPP geom=connectivity
 ---------------------------------------------

 ------------------
 Water optimization
 ------------------
 Symbolic Z-matrix:
 Charge =  0 Multiplicity = 1

 SCF Done:  E(RwB97XD) =  -76.4409394388     A.U. after   11 cycles
 SCF Done:  E(RwB97XD) =  -76.4414718743     A.U. after   10 cycles
 SCF Done:  E(RwB97XD) =  -76.4414807599     A.U. after    8 cycles
 Optimization completed.
    -- Stationary point found.
 Normal termination of Gaussian 16 at Sat Mar 16 00:01:40 2024.

 ----------------------------------------------------------------------
 #N Geom=AllCheck Guess=TCheck SCRF=Check GenChk RwB97XD/def2TZVPP Freq
 ----------------------------------------------------------------------

 Structure from the checkpoint file:  "WaterOpt.chk"
 ------------------
 Water optimization
 ------------------
 Charge =  0 Multiplicity = 1

                         Standard orientation:
 ---------------------------------------------------------------------
 Center     Atomic      Atomic             Coordinates (Angstroms)
 Number     Number       Type             X           Y           Z
 ---------------------------------------------------------------------
      1          8           0        0.000000    0.000000    0.116347
      2          1           0        0.000000    0.758473   -0.465389
      3          1           0       -0.000000   -0.758473   -0.465389
 ---------------------------------------------------------------------

 SCF Done:  E(RwB97XD) =  -76.4414807599     A.U. after    1 cycles

 The electronic state is 1-A1.
 Alpha  occ. eigenvalues --  -19.24605  -1.11341  -0.62125  -0.47679  -0.40140
 Alpha virt. eigenvalues --    0.10219   0.17613   0.44789   0.49468   0.49506
 Alpha virt. eigenvalues --    0.51989   0.62323   0.64001   0.73533   0.76057
 Alpha virt. eigenvalues --    0.85683   1.09489   1.25996   1.32326   1.79280

 Mulliken charges:
               1
     1  O   -0.363208
     2  H    0.181604
     3  H    0.181604
 Sum of Mulliken charges =  -0.00000

 Dipole moment (field-independent basis, Debye):
    X=             -0.0000    Y=              0.0000    Z=             -1.9519  Tot=              1.9519
 Quadrupole moment (field-independent basis, Debye-Ang):
   XX=             -7.4538   YY=             -4.2871   ZZ=             -6.2422
   XY=              0.0000   XZ=              0.0000   YZ=             -0.0000

  Exact polarizability:       6.011       0.000       8.483      -0.000       0.000       7.453
 Approx polarizability:       5.458       0.000       8.570       0.000      -0.000       7.343

                      1                      2                      3
                     A1                     A1                     B2
 Frequencies --   1642.0782              3901.0084              4006.9705
 Red. masses --      1.0831                 1.0448                 1.0824
 Frc consts  --      1.7207                 9.3675                10.2391
 IR Inten    --     71.3054                 6.0912                54.3467

 - Thermochemistry -
 -------------------
 Temperature   298.150 Kelvin.  Pressure   1.00000 Atm.
 Atom     1 has atomic number  8 and mass  15.99491

 Molecular mass:    18.01056 amu.
 Principal axes and moments of inertia in atomic units:
                           1         2         3
     Eigenvalues --     2.16331   4.14089   6.30420
           X            0.00000   0.00000   1.00000
           Y            1.00000   0.00000  -0.00000
           Z            0.00000   1.00000   0.00000
 This molecule is an asymmetric top.
 Rotational symmetry number  2.
 Rotational temperatures (Kelvin)     40.03760    20.91677    13.73908
 Rotational constants (GHZ):         834.24807   435.83465   286.27601
 Zero-point vibrational energy      57122.0 (Joules/Mol)
                                   13.65249 (Kcal/Mol)
 Vibrational temperatures:   2362.58  5612.68  5765.14
          (Kelvin)

 Zero-point correction=                           0.021757 (Hartree/Particle)
 Thermal correction to Energy=                    0.024592
 Thermal correction to Enthalpy=                  0.025536
 Thermal correction to Gibbs Free Energy=         0.004132
 Sum of electronic and zero-point Energies=            -76.419724
 Sum of electronic and thermal Energies=               -76.416889
 Sum of electronic and thermal Enthalpies=             -76.415945
 Sum of electronic and thermal Free Energies=          -76.437348

                     E (Thermal)             CV                S
                      KCal/Mol        Cal/Mol-Kelvin    Cal/Mol-Kelvin
 Total                   15.432              6.007             45.048
 Electronic               0.000              0.000              0.000
 Translational            0.889              2.981             34.608
 Rotational               0.889              2.981             10.433
 Vibrational             13.654              0.045              0.006

 Optimization completed.
    -- Stationary point found.
 Normal termination of Gaussian 16 at Sat Mar 16 00:01:47 2024.
