 Gaussian 16, Revision C.01,
 Gaussian 16:  ES64L-G16RevC.01  3-Jul-2019

 ---------------------------------------------
 # opt freq wb97xd/def2tzvpp geom=connectivity
 ---------------------------------------------

 -----------------------------
 OnceDeprotonated Bidentate QL
 -----------------------------
 Symbolic Z-matrix:
 Charge = -1 Multiplicity = 1

 SCF Done:  E(RwB97XD) =  -669.854874735     A.U. after   15 cycles
 SCF Done:  E(RwB97XD) =  -669.872293034     A.U. after   13 cycles
 SCF Done:  E(RwB97XD) =  -669.876153572     A.U. after   13 cycles
 SCF Done:  E(RwB97XD) =  -669.876664817     A.U. after   12 cycles
 SCF Done:  E(RwB97XD) =  -669.877235286     A.U. after   12 cycles
 SCF Done:  E(RwB97XD) =  -669.877717862     A.U. after   12 cycles
 SCF Done:  E(RwB97XD) =  -669.878044584     A.U. after   12 cycles
 SCF Done:  E(RwB97XD) =  -669.878310196     A.U. after   12 cycles
 SCF Done:  E(RwB97XD) =  -669.878414958     A.U. after   11 cycles
 SCF Done:  E(RwB97XD) =  -669.878452086     A.U. after   11 cycles
 SCF Done:  E(RwB97XD) =  -669.878464838     A.U. after   10 cycles
 SCF Done:  E(RwB97XD) =  -669.878470104     A.U. after    9 cycles
 SCF Done:  E(RwB97XD) =  -669.878476757     A.U. after   10 cycles
 SCF Done:  E(RwB97XD) =  -669.878479031     A.U. after    9 cycles
 SCF Done:  E(RwB97XD) =  -669.878482016     A.U. after   10 cycles
 SCF Done:  E(RwB97XD) =  -669.878482331     A.U. after    8 cycles
 Optimization completed.
    -- Stationary point found.
 Normal termination of Gaussian 16 at Wed Oct 25 11:22:38 2023.

 ----------------------------------------------------------------------
 #N Geom=AllCheck Guess=TCheck SCRF=Check GenChk RwB97XD/def2TZVPP Freq
 ----------------------------------------------------------------------

 Structure from the checkpoint file:  "OnceDeprotonatedBIQLEG.chk"
 -----------------------------
 OnceDeprotonated Bidentate QL
 -----------------------------
 Charge = -1 Multiplicity = 1

                         Standard orientation:
 ---------------------------------------------------------------------
 Center     Atomic      Atomic             Coordinates (Angstroms)
 Number     Number       Type             X           Y           Z
 ---------------------------------------------------------------------
      1         14           0        0.703851   -0.087929    0.090838
      2          8           0        1.783414   -0.803200    0.924746
      3          8           0       -0.457768    0.845853    0.913640
      4          8           0       -0.470278   -0.982464   -0.756719
      5          8           0        1.335421    0.926373   -1.094223
      6          1           0        2.284138    0.923505   -0.985179
      7          6           0       -1.757819   -0.686335   -0.308557
      8          1           0       -2.474496   -0.736149   -1.137932
      9          1           0       -2.077377   -1.410714    0.456466
     10          6           0       -1.705283    0.721988    0.301078
     11          1           0       -1.826224    1.475229   -0.493266
     12          1           0       -2.507662    0.872722    1.033509
 ---------------------------------------------------------------------

 SCF Done:  E(RwB97XD) =  -669.878482331     A.U. after    1 cycles

 The electronic state is 1-A.
 Alpha  occ. eigenvalues --  -66.07913 -19.06474 -19.06459 -19.05819 -18.95731
 Alpha  occ. eigenvalues --  -10.18231 -10.18199  -5.19794  -3.54455  -3.54308
 Alpha  occ. eigenvalues --   -3.54022  -0.97350  -0.91369  -0.91252  -0.77441
 Alpha  occ. eigenvalues --   -0.66870  -0.54982  -0.45535  -0.43084  -0.41305
 Alpha  occ. eigenvalues --   -0.38265  -0.35205  -0.34194  -0.29745  -0.24811
 Alpha  occ. eigenvalues --   -0.24180  -0.23654  -0.22216  -0.19631  -0.18665
 Alpha  occ. eigenvalues --   -0.14384  -0.14025
 Alpha virt. eigenvalues --    0.25316   0.27031   0.28452   0.29630   0.31202
 Alpha virt. eigenvalues --    0.34123   0.35106   0.36536   0.38950   0.40133
 Alpha virt. eigenvalues --    0.40869   0.42108   0.44293   0.47544   0.48735

 Mulliken charges:
               1
     1  Si   0.726642
     2  O   -0.770132
     3  O   -0.447583
     4  O   -0.448445
     5  O   -0.472571
     6  H    0.166886
     7  C    0.091237
     8  H    0.011673
     9  H    0.019955
    10  C    0.081114
    11  H    0.021718
    12  H    0.019505
 Sum of Mulliken charges =  -1.00000

 Dipole moment (field-independent basis, Debye):
    X=             -4.6928    Y=              1.7601    Z=             -1.8569  Tot=              5.3449
 Quadrupole moment (field-independent basis, Debye-Ang):
   XX=            -55.7443   YY=            -56.7277   ZZ=            -58.1652
   XY=              5.0644   XZ=             -5.4925   YZ=              1.3617

  Exact polarizability:      70.790      -0.397      55.992       0.670      -1.936      54.804
 Approx polarizability:      67.998      -1.166      58.430       1.529      -1.757      59.635

                      1                      2                      3
                      A                      A                      A
 Frequencies --     76.3452               180.8155               232.0327
 Red. masses --      3.8870                 3.2307                 2.3558
 Frc consts  --      0.0133                 0.0622                 0.0747
 IR Inten    --      3.5881                 0.7052                10.4223

                      4                      5                      6
                      A                      A                      A
 Frequencies --    296.7178               328.5199               376.1694
 Red. masses --      5.5262                 1.4893                 4.6545
 Frc consts  --      0.2867                 0.0947                 0.3880
 IR Inten    --     28.8085                24.9556                54.4463

                      7                      8                      9
                      A                      A                      A
 Frequencies --    403.7473               505.6288               610.8538
 Red. masses --     11.6942                 7.6036                 2.9773
 Frc consts  --      1.1232                 1.1453                 0.6546
 IR Inten    --     22.3517                42.9074                 4.6595

                     10                     11                     12
                      A                      A                      A
 Frequencies --    713.2341               723.9256               821.1561
 Red. masses --      9.0375                 5.1786                14.4572
 Frc consts  --      2.7087                 1.5990                 5.7436
 IR Inten    --     10.1728               166.1953               328.6025

                     13                     14                     15
                      A                      A                      A
 Frequencies --    909.5742               926.3427               934.6660
 Red. masses --      1.7503                 2.4936                 1.2655
 Frc consts  --      0.8532                 1.2607                 0.6513
 IR Inten    --     28.7781                10.0136                50.9411

                     16                     17                     18
                      A                      A                      A
 Frequencies --   1144.4492              1149.0165              1171.9999
 Red. masses --      3.0172                 5.4398                 2.7001
 Frc consts  --      2.3284                 4.2314                 2.1851
 IR Inten    --    121.7914                13.9546                89.5684

                     19                     20                     21
                      A                      A                      A
 Frequencies --   1196.9444              1260.0697              1264.5270
 Red. masses --     13.6706                 1.1430                 1.1719
 Frc consts  --     11.5395                 1.0692                 1.1041
 IR Inten    --    405.3149                 1.3134                20.0919

                     22                     23                     24
                      A                      A                      A
 Frequencies --   1383.0988              1396.7669              1513.2681
 Red. masses --      1.2950                 1.3036                 1.0881
 Frc consts  --      1.4596                 1.4985                 1.4681
 IR Inten    --      5.3341                 6.0609                 0.2713

                     25                     26                     27
                      A                      A                      A
 Frequencies --   1519.9999              2948.1446              2954.3238
 Red. masses --      1.0931                 1.0751                 1.0613
 Frc consts  --      1.4880                 5.5054                 5.4578
 IR Inten    --      2.2368                66.9776               130.7587

                     28                     29                     30
                      A                      A                      A
 Frequencies --   3009.7165              3019.0111              3961.7336
 Red. masses --      1.0862                 1.0996                 1.0652
 Frc consts  --      5.7971                 5.9052                 9.8499
 IR Inten    --    161.3483               126.5443                35.3782

 - Thermochemistry -
 -------------------
 Temperature   298.150 Kelvin.  Pressure   1.00000 Atm.
 Atom     1 has atomic number 14 and mass  27.97693

 Molecular mass:   120.99571 amu.
 Principal axes and moments of inertia in atomic units:
                           1         2         3
     Eigenvalues --   467.67483 924.32853 952.52062
           X            0.99978   0.01369  -0.01569
           Y           -0.01480   0.99720  -0.07329
           Z            0.01464   0.07350   0.99719
 This molecule is an asymmetric top.
 Rotational symmetry number  1.
 Warning -- assumption of classical behavior for rotation
           may cause significant error
 Rotational temperatures (Kelvin)      0.18520     0.09370     0.09093
 Rotational constants (GHZ):           3.85897     1.95249     1.89470
 Zero-point vibrational energy     220907.2 (Joules/Mol)
                                   52.79809 (Kcal/Mol)
 Warning -- explicit consideration of   9 degrees of freedom as
           vibrations may cause significant error
 Vibrational temperatures:    109.84   260.15   333.84   426.91   472.67
          (Kelvin)            541.22   580.90   727.49   878.88  1026.18
                             1041.57  1181.46  1308.67  1332.80  1344.78
                             1646.61  1653.18  1686.25  1722.14  1812.96
                             1819.37  1989.97  2009.64  2177.26  2186.94
                             4241.72  4250.61  4330.31  4343.68  5700.05

 Zero-point correction=                           0.084139 (Hartree/Particle)
 Thermal correction to Energy=                    0.091239
 Thermal correction to Enthalpy=                  0.092183
 Thermal correction to Gibbs Free Energy=         0.052651
 Sum of electronic and zero-point Energies=           -669.794343
 Sum of electronic and thermal Energies=              -669.787244
 Sum of electronic and thermal Enthalpies=            -669.786299
 Sum of electronic and thermal Free Energies=         -669.825832

                     E (Thermal)             CV                S
                      KCal/Mol        Cal/Mol-Kelvin    Cal/Mol-Kelvin
 Total                   57.253             25.335             83.203
 Electronic               0.000              0.000              0.000
 Translational            0.889              2.981             40.286
 Rotational               0.889              2.981             27.512
 Vibrational             55.476             19.373             15.405
 Vibration     1          0.599              1.965              3.983
 Vibration     2          0.630              1.866              2.320
 Vibration     3          0.653              1.792              1.863
 Vibration     4          0.690              1.680              1.435
 Vibration     5          0.712              1.619              1.267
 Vibration     6          0.747              1.521              1.055
 Vibration     7          0.769              1.462              0.949
 Vibration     8          0.861              1.238              0.644
 Vibration     9          0.970              1.009              0.431

 Optimization completed.
    -- Stationary point found.
 Normal termination of Gaussian 16 at Wed Oct 25 11:27:41 2023.
