 Gaussian 16, Revision C.01,
 Gaussian 16:  ES64L-G16RevC.01  3-Jul-2019

 ----------------------------------------------------
 # opt=calcfc freq wb97xd/def2tzvpp geom=connectivity
 ----------------------------------------------------

 ----------------------------------------------------------------------
 Title Card Required
 ----------------------------------------------------------------------
 Symbolic Z-matrix:
 Charge = -2 Multiplicity = 1

 SCF Done:  E(RwB97XD) =  -899.454520227     A.U. after   15 cycles
 SCF Done:  E(RwB97XD) =  -899.456811416     A.U. after   14 cycles
 SCF Done:  E(RwB97XD) =  -899.461488384     A.U. after   13 cycles
 SCF Done:  E(RwB97XD) =  -899.462346977     A.U. after   13 cycles
 SCF Done:  E(RwB97XD) =  -899.464351376     A.U. after   13 cycles
 SCF Done:  E(RwB97XD) =  -899.466108134     A.U. after   13 cycles
 SCF Done:  E(RwB97XD) =  -899.467357602     A.U. after   13 cycles
 SCF Done:  E(RwB97XD) =  -899.467905426     A.U. after   13 cycles
 SCF Done:  E(RwB97XD) =  -899.467947919     A.U. after   12 cycles
 SCF Done:  E(RwB97XD) =  -899.467973017     A.U. after   12 cycles
 SCF Done:  E(RwB97XD) =  -899.467986757     A.U. after    9 cycles
 SCF Done:  E(RwB97XD) =  -899.467987717     A.U. after    9 cycles
 SCF Done:  E(RwB97XD) =  -899.467989431     A.U. after    9 cycles
 SCF Done:  E(RwB97XD) =  -899.467990603     A.U. after    9 cycles
 SCF Done:  E(RwB97XD) =  -899.467992161     A.U. after    9 cycles
 SCF Done:  E(RwB97XD) =  -899.467994267     A.U. after   10 cycles
 SCF Done:  E(RwB97XD) =  -899.467995475     A.U. after    9 cycles
 SCF Done:  E(RwB97XD) =  -899.467996117     A.U. after    9 cycles
 SCF Done:  E(RwB97XD) =  -899.467996195     A.U. after    8 cycles
 Optimization completed.
    -- Stationary point found.
 Normal termination of Gaussian 16 at Tue Mar 26 08:20:13 2024.

 ----------------------------------------------------------------------
 #N Geom=AllCheck Guess=TCheck SCRF=Check GenChk RwB97XD/def2TZVPP Freq
 ----------------------------------------------------------------------

 ----------------------------------------------------------------------
 Modify TS discovered for PmonoL1 to HBiL3 into potential PL3 to HL3 TS
  opt Unfreeze Result of previous job and optimize to a TS
 ----------------------------------------------------------------------
 Charge = -2 Multiplicity = 1

                         Standard orientation:
 ---------------------------------------------------------------------
 Center     Atomic      Atomic             Coordinates (Angstroms)
 Number     Number       Type             X           Y           Z
 ---------------------------------------------------------------------
      1         14           0        0.000969    0.479000    0.017318
      2          8           0        0.621002    1.830399    0.951195
      3          8           0       -0.741645   -0.922331   -0.996683
      4          8           0       -1.497670    0.383041    1.014142
      5          8           0        0.791770   -0.706951    1.141138
      6          8           0        1.478063    0.307130   -1.045961
      7          8           0       -0.686015    1.635119   -1.163164
      8          6           0        2.256699   -0.757830   -0.682642
      9          1           0        3.322333   -0.599493   -0.955241
     10          1           0        1.929779   -1.697998   -1.177988
     11          6           0        2.106990   -0.927506    0.834490
     12          1           0        2.778041   -0.197540    1.339245
     13          1           0        2.435956   -1.940353    1.150520
     14          6           0       -2.485352   -0.377738    0.454553
     15          1           0       -3.158106   -0.806051    1.227451
     16          1           0       -3.126562    0.217020   -0.236419
     17          6           0       -1.807546   -1.489592   -0.355468
     18          1           0       -1.490886   -2.292567    0.346036
     19          1           0       -2.527680   -1.948476   -1.068116
     20          1           0       -0.817165    1.094691   -1.938966
     21          1           0        0.491941    2.569502    0.360091
 ---------------------------------------------------------------------

 SCF Done:  E(RwB97XD) =  -899.467996195     A.U. after    1 cycles

 The electronic state is 1-A.
 Alpha  occ. eigenvalues --  -65.95744 -18.87240 -18.87229 -18.87158 -18.87141
 Alpha  occ. eigenvalues --  -18.86291 -18.85821 -10.01475 -10.01366 -10.01295
 Alpha  occ. eigenvalues --  -10.01227  -5.06210  -3.40805  -3.40756  -3.40742
 Alpha  occ. eigenvalues --   -0.79503  -0.77164  -0.73101  -0.72668  -0.71814
 Alpha  occ. eigenvalues --   -0.69575  -0.49684  -0.48371  -0.37517  -0.36532
 Alpha  occ. eigenvalues --   -0.28949  -0.26517  -0.25453  -0.24597  -0.23774
 Alpha  occ. eigenvalues --   -0.21755  -0.19500  -0.19086  -0.17941  -0.16967
 Alpha  occ. eigenvalues --   -0.15923  -0.14298  -0.09254  -0.07560  -0.06021
 Alpha  occ. eigenvalues --   -0.05329  -0.04534  -0.03875  -0.03257  -0.02737
 Alpha  occ. eigenvalues --   -0.00844   0.00126   0.00696   0.01710
 Alpha virt. eigenvalues --    0.37842   0.38628   0.41267   0.41908   0.42352
 Alpha virt. eigenvalues --    0.42854   0.43063   0.46459   0.47264   0.47475
 Alpha virt. eigenvalues --    0.48315   0.49043   0.53013   0.53321   0.54371

 Mulliken charges:
               1
     1  Si   0.909131
     2  O   -0.562673
     3  O   -0.556947
     4  O   -0.480492
     5  O   -0.511764
     6  O   -0.504631
     7  O   -0.614435
     8  C    0.135446
     9  H   -0.067540
    10  H   -0.049355
    11  C    0.139492
    12  H   -0.047741
    13  H   -0.064456
    14  C    0.134459
    15  H   -0.060424
    16  H   -0.062140
    17  C    0.125826
    18  H   -0.046364
    19  H   -0.066911
    20  H    0.126292
    21  H    0.125227
 Sum of Mulliken charges =  -2.00000

 Dipole moment (field-independent basis, Debye):
    X=             -0.1569    Y=             -2.4670    Z=             -1.1884  Tot=              2.7428
 Quadrupole moment (field-independent basis, Debye-Ang):
   XX=           -102.3283   YY=            -96.3257   ZZ=            -95.3441
   XY=              0.5123   XZ=              1.2052   YZ=             -1.5902

  Exact polarizability:     123.591       0.618     105.036       2.034      -0.767      94.697
 Approx polarizability:     114.599       1.221     109.822       1.608      -1.232     104.297

                      1                      2                      3
                      A                      A                      A
 Frequencies --     73.3397                98.5686               159.4244
 Red. masses --      3.1098                 3.4003                 2.2979
 Frc consts  --      0.0099                 0.0195                 0.0344
 IR Inten    --      3.8782                 3.1281                12.2068

                      4                      5                      6
                      A                      A                      A
 Frequencies --    177.5715               217.2192               228.2922
 Red. masses --      2.5117                 1.8398                 1.9980
 Frc consts  --      0.0467                 0.0511                 0.0614
 IR Inten    --      0.6788                 8.9041                17.7167

                      7                      8                      9
                      A                      A                      A
 Frequencies --    279.2995               305.6688               315.4771
 Red. masses --      2.0624                 3.1387                 3.1012
 Frc consts  --      0.0948                 0.1728                 0.1818
 IR Inten    --      2.9548                 2.2096                 8.4935

                     10                     11                     12
                      A                      A                      A
 Frequencies --    330.0024               368.3021               376.4002
 Red. masses --      4.0837                 6.2662                 4.5755
 Frc consts  --      0.2620                 0.5008                 0.3819
 IR Inten    --     31.8431                 8.0621                 0.5566

                     13                     14                     15
                      A                      A                      A
 Frequencies --    385.3007               391.4204               399.3449
 Red. masses --      5.1105                 4.3326                 7.3743
 Frc consts  --      0.4470                 0.3911                 0.6929
 IR Inten    --      4.8749                10.3935                32.9071

                     16                     17                     18
                      A                      A                      A
 Frequencies --    480.2908               555.8221               575.4621
 Red. masses --      8.1319                11.3131                 6.7395
 Frc consts  --      1.1052                 2.0592                 1.3150
 IR Inten    --     23.7867                10.7551               210.0266

                     19                     20                     21
                      A                      A                      A
 Frequencies --    582.3072               622.6873               643.4750
 Red. masses --      8.9273                 2.7530                 6.4448
 Frc consts  --      1.7835                 0.6289                 1.5723
 IR Inten    --     62.1064                63.0784               444.8570

                     22                     23                     24
                      A                      A                      A
 Frequencies --    646.0497               680.9775               910.1218
 Red. masses --      2.6244                10.1928                 2.3260
 Frc consts  --      0.6454                 2.7849                 1.1352
 IR Inten    --    166.2743               326.4245                12.8230

                     25                     26                     27
                      A                      A                      A
 Frequencies --    911.7212               924.7311               927.8028
 Red. masses --      2.3350                 1.8235                 1.7739
 Frc consts  --      1.1436                 0.9187                 0.8997
 IR Inten    --      7.6169                26.3630                74.3906

                     28                     29                     30
                      A                      A                      A
 Frequencies --    988.8462              1027.8839              1141.1777
 Red. masses --      1.1979                 1.1854                 2.4295
 Frc consts  --      0.6901                 0.7379                 1.8641
 IR Inten    --    191.2495               157.0773               151.3819

                     31                     32                     33
                      A                      A                      A
 Frequencies --   1144.2494              1173.0697              1180.9578
 Red. masses --      2.1817                 3.7829                 3.3153
 Frc consts  --      1.6830                 3.0671                 2.7242
 IR Inten    --     27.7135                 9.2409                11.0747

                     34                     35                     36
                      A                      A                      A
 Frequencies --   1190.5362              1205.0355              1248.8986
 Red. masses --      3.2038                 3.0281                 1.2328
 Frc consts  --      2.6754                 2.5907                 1.1330
 IR Inten    --    304.9992                83.2822                 2.9063

                     37                     38                     39
                      A                      A                      A
 Frequencies --   1250.2437              1250.7296              1252.1505
 Red. masses --      1.2493                 1.2740                 1.3430
 Frc consts  --      1.1506                 1.1742                 1.2406
 IR Inten    --     18.1367                 6.3830                11.1255

                     40                     41                     42
                      A                      A                      A
 Frequencies --   1370.9672              1376.9208              1382.7854
 Red. masses --      1.3468                 1.3732                 1.3205
 Frc consts  --      1.4914                 1.5339                 1.4877
 IR Inten    --      7.4794                24.5881                38.5430

                     43                     44                     45
                      A                      A                      A
 Frequencies --   1384.4156              1479.9162              1481.6137
 Red. masses --      1.3340                 1.0931                 1.0935
 Frc consts  --      1.5064                 1.4106                 1.4143
 IR Inten    --     11.2799                 3.0399                 3.5690

                     46                     47                     48
                      A                      A                      A
 Frequencies --   1487.1942              1487.6851              2779.3337
 Red. masses --      1.0976                 1.0970                 1.0817
 Frc consts  --      1.4303                 1.4304                 4.9230
 IR Inten    --     11.1332                10.9162                77.6596

                     49                     50                     51
                      A                      A                      A
 Frequencies --   2797.9299              2809.8761              2813.9148
 Red. masses --      1.0897                 1.0556                 1.0529
 Frc consts  --      5.0259                 4.9103                 4.9118
 IR Inten    --     28.2520               115.0231               170.6058

                     52                     53                     54
                      A                      A                      A
 Frequencies --   2822.5687              2837.1429              2842.5562
 Red. masses --      1.0953                 1.0969                 1.0757
 Frc consts  --      5.1411                 5.2020                 5.1212
 IR Inten    --    643.7785               578.2132               399.9756

                     55                     56                     57
                      A                      A                      A
 Frequencies --   2849.6424              3938.2697              3949.2167
 Red. masses --      1.0637                 1.0651                 1.0644
 Frc consts  --      5.0890                 9.7327                 9.7808
 IR Inten    --    485.9141                 4.3641                 3.6475

 - Thermochemistry -
 -------------------
 Temperature   298.150 Kelvin.  Pressure   1.00000 Atm.
 Atom     1 has atomic number 14 and mass  27.97693

 Molecular mass:   182.02467 amu.
 Principal axes and moments of inertia in atomic units:
                           1         2         3
     Eigenvalues --  1197.522121878.851882098.42976
           X            0.99997   0.00035   0.00741
           Y           -0.00024   0.99991  -0.01363
           Z           -0.00742   0.01363   0.99988
 This molecule is an asymmetric top.
 Rotational symmetry number  1.
 Warning -- assumption of classical behavior for rotation
           may cause significant error
 Rotational temperatures (Kelvin)      0.07233     0.04610     0.04128
 Rotational constants (GHZ):           1.50706     0.96056     0.86004
 Zero-point vibrational energy     409797.6 (Joules/Mol)
                                   97.94398 (Kcal/Mol)
 Warning -- explicit consideration of  19 degrees of freedom as
           vibrations may cause significant error
 Vibrational temperatures:    105.52   141.82   229.38   255.49   312.53
          (Kelvin)            328.46   401.85   439.79   453.90   474.80
                              529.90   541.56   554.36   563.17   574.57
                              691.03   799.70   827.96   837.81   895.91
                              925.82   929.52   979.77  1309.46  1311.76
                             1330.48  1334.90  1422.73  1478.90  1641.90
                             1646.32  1687.79  1699.13  1712.92  1733.78
                             1796.89  1798.82  1799.52  1801.57  1972.52
                             1981.08  1989.52  1991.87  2129.27  2131.71
                             2139.74  2140.45  3998.84  4025.60  4042.79
                             4048.60  4061.05  4082.02  4089.80  4100.00
                             5666.29  5682.04

 Zero-point correction=                           0.156084 (Hartree/Particle)
 Thermal correction to Energy=                    0.167793
 Thermal correction to Enthalpy=                  0.168737
 Thermal correction to Gibbs Free Energy=         0.119626
 Sum of electronic and zero-point Energies=           -899.311913
 Sum of electronic and thermal Energies=              -899.300203
 Sum of electronic and thermal Enthalpies=            -899.299259
 Sum of electronic and thermal Free Energies=         -899.348370

                     E (Thermal)             CV                S
                      KCal/Mol        Cal/Mol-Kelvin    Cal/Mol-Kelvin
 Total                  105.292             45.163            103.362
 Electronic               0.000              0.000              0.000
 Translational            0.889              2.981             41.503
 Rotational               0.889              2.981             29.936
 Vibrational            103.514             39.202             31.923
 Vibration     1          0.599              1.967              4.062
 Vibration     2          0.604              1.950              3.482
 Vibration     3          0.621              1.892              2.557
 Vibration     4          0.628              1.870              2.354
 Vibration     5          0.646              1.815              1.982
 Vibration     6          0.651              1.798              1.892
 Vibration     7          0.680              1.712              1.538
 Vibration     8          0.696              1.663              1.386
 Vibration     9          0.703              1.644              1.333
 Vibration    10          0.713              1.616              1.260
 Vibration    11          0.741              1.537              1.087
 Vibration    12          0.747              1.520              1.054
 Vibration    13          0.754              1.502              1.018
 Vibration    14          0.759              1.489              0.995
 Vibration    15          0.765              1.472              0.965
 Vibration    16          0.837              1.294              0.709
 Vibration    17          0.911              1.127              0.532
 Vibration    18          0.932              1.084              0.494
 Vibration    19          0.939              1.070              0.481

 Optimization completed.
    -- Stationary point found.
 Normal termination of Gaussian 16 at Tue Mar 26 09:28:59 2024.
