 Gaussian 16, Revision C.01,
 Gaussian 16:  ES64L-G16RevC.01  3-Jul-2019

 ---------------------------------------------
 # opt freq wb97xd/def2tzvpp geom=connectivity
 ---------------------------------------------

 ------------------------------
 Monodendate QL Conformer 7 Opt
 ------------------------------
 Symbolic Z-matrix:
 Charge =  0 Multiplicity = 1

 SCF Done:  E(RwB97XD) =  -746.911478561     A.U. after   13 cycles
 SCF Done:  E(RwB97XD) =  -746.914889892     A.U. after   12 cycles
 SCF Done:  E(RwB97XD) =  -746.916837166     A.U. after   12 cycles
 SCF Done:  E(RwB97XD) =  -746.917621311     A.U. after   10 cycles
 SCF Done:  E(RwB97XD) =  -746.917688849     A.U. after   11 cycles
 SCF Done:  E(RwB97XD) =  -746.917868047     A.U. after   11 cycles
 SCF Done:  E(RwB97XD) =  -746.917899443     A.U. after    9 cycles
 SCF Done:  E(RwB97XD) =  -746.917958920     A.U. after   10 cycles
 SCF Done:  E(RwB97XD) =  -746.917984790     A.U. after   10 cycles
 SCF Done:  E(RwB97XD) =  -746.917995270     A.U. after   10 cycles
 SCF Done:  E(RwB97XD) =  -746.918008255     A.U. after    9 cycles
 SCF Done:  E(RwB97XD) =  -746.918012152     A.U. after   10 cycles
 SCF Done:  E(RwB97XD) =  -746.918014711     A.U. after    8 cycles
 SCF Done:  E(RwB97XD) =  -746.918023469     A.U. after    9 cycles
 SCF Done:  E(RwB97XD) =  -746.918025644     A.U. after    8 cycles
 SCF Done:  E(RwB97XD) =  -746.918025874     A.U. after    6 cycles
 SCF Done:  E(RwB97XD) =  -746.918026028     A.U. after    6 cycles
 SCF Done:  E(RwB97XD) =  -746.918026160     A.U. after    7 cycles
 SCF Done:  E(RwB97XD) =  -746.918026209     A.U. after    6 cycles
 Optimization completed.
    -- Stationary point found.
 Normal termination of Gaussian 16 at Tue Sep 19 21:14:25 2023.

 ----------------------------------------------------------------------
 #N Geom=AllCheck Guess=TCheck SCRF=Check GenChk RwB97XD/def2TZVPP Freq
 ----------------------------------------------------------------------

 Structure from the checkpoint file:  "QLConformer7Opt.chk"
 ------------------------------
 Monodendate QL Conformer 7 Opt
 ------------------------------
 Charge =  0 Multiplicity = 1

                         Standard orientation:
 ---------------------------------------------------------------------
 Center     Atomic      Atomic             Coordinates (Angstroms)
 Number     Number       Type             X           Y           Z
 ---------------------------------------------------------------------
      1         14           0       -1.032082    0.030867   -0.026924
      2          8           0       -1.510828    0.095024    1.527940
      3          1           0       -2.130801   -0.564558    1.829376
      4          8           0       -2.315009   -0.416994   -0.923376
      5          1           0       -2.149220   -0.789892   -1.785696
      6          8           0       -0.466470    1.525724   -0.395912
      7          1           0       -0.945628    2.278624   -0.057046
      8          8           0        0.164450   -1.010725   -0.341131
      9          6           0        1.411837   -1.175979    0.315983
     10          1           0        1.704575   -2.218787    0.178385
     11          1           0        1.304804   -0.984973    1.387735
     12          6           0        2.487988   -0.273279   -0.254865
     13          1           0        3.452794   -0.607499    0.131691
     14          1           0        2.506033   -0.392683   -1.345479
     15          8           0        2.353447    1.074594    0.115617
     16          1           0        1.502930    1.402182   -0.193852
 ---------------------------------------------------------------------

 SCF Done:  E(RwB97XD) =  -746.918026209     A.U. after    1 cycles

 The electronic state is 1-A.
 Alpha  occ. eigenvalues --  -66.31576 -19.26489 -19.25970 -19.25820 -19.25536
 Alpha  occ. eigenvalues --  -19.23111 -10.33704 -10.32264  -5.43315  -3.77832
 Alpha  occ. eigenvalues --   -3.77802  -3.77789  -1.15196  -1.12110  -1.11357
 Alpha  occ. eigenvalues --   -1.10757  -1.10445  -0.84000  -0.72574  -0.67780
 Alpha  occ. eigenvalues --   -0.63227  -0.62264  -0.60559  -0.58480  -0.56436
 Alpha  occ. eigenvalues --   -0.51819  -0.50015  -0.48802  -0.47402  -0.46715
 Alpha  occ. eigenvalues --   -0.45023  -0.44033  -0.43268  -0.42185  -0.39954
 Alpha  occ. eigenvalues --   -0.38699  -0.34643
 Alpha virt. eigenvalues --    0.08237   0.12312   0.12679   0.13715   0.16783
 Alpha virt. eigenvalues --    0.17671   0.18460   0.19163   0.20160   0.20667
 Alpha virt. eigenvalues --    0.21965   0.23272   0.27061   0.27268   0.27686

 Mulliken charges:
               1
     1  Si   0.776303
     2  O   -0.377630
     3  H    0.182274
     4  O   -0.384063
     5  H    0.183223
     6  O   -0.389730
     7  H    0.188947
     8  O   -0.374671
     9  C    0.034018
    10  H    0.071910
    11  H    0.079026
    12  C    0.060882
    13  H    0.064369
    14  H    0.061316
    15  O   -0.385194
    16  H    0.209020
 Sum of Mulliken charges =  -0.00000

 Dipole moment (field-independent basis, Debye):
    X=             -1.6991    Y=             -1.5079    Z=             -0.3993  Tot=              2.3065
 Quadrupole moment (field-independent basis, Debye-Ang):
   XX=            -55.5651   YY=            -49.5745   ZZ=            -50.7338
   XY=             -5.1187   XZ=             -1.3504   YZ=             -1.2812

  Exact polarizability:      70.567      -1.937      61.009      -0.069       0.048      57.685
 Approx polarizability:      66.550      -1.403      64.628       0.224       1.323      62.837

                      1                      2                      3
                      A                      A                      A
 Frequencies --     33.4203                86.2475               143.7215
 Red. masses --      5.7531                 3.5049                 4.0046
 Frc consts  --      0.0038                 0.0154                 0.0487
 IR Inten    --      1.7350                 2.0422                16.6741

                      4                      5                      6
                      A                      A                      A
 Frequencies --    164.3931               197.1133               222.8061
 Red. masses --      2.9191                 1.9041                 1.6072
 Frc consts  --      0.0465                 0.0436                 0.0470
 IR Inten    --     44.4571                40.0647                16.7703

                      7                      8                      9
                      A                      A                      A
 Frequencies --    251.5159               290.0208               318.8649
 Red. masses --      1.2731                 2.1428                 3.7069
 Frc consts  --      0.0475                 0.1062                 0.2221
 IR Inten    --     32.8222                16.0059                58.7823

                     10                     11                     12
                      A                      A                      A
 Frequencies --    355.0511               367.9902               394.5327
 Red. masses --      2.5953                 2.4589                 3.7797
 Frc consts  --      0.1928                 0.1962                 0.3466
 IR Inten    --     53.0724                42.0677                38.6761

                     13                     14                     15
                      A                      A                      A
 Frequencies --    417.5873               515.8981               559.6683
 Red. masses --      6.6028                 2.3734                 1.1298
 Frc consts  --      0.6784                 0.3722                 0.2085
 IR Inten    --     63.7284                59.7948                91.2580

                     16                     17                     18
                      A                      A                      A
 Frequencies --    702.7283               821.8574               825.9425
 Red. masses --      4.7155                 2.2006                 1.3049
 Frc consts  --      1.3720                 0.8758                 0.5245
 IR Inten    --     19.1412               125.4869               130.2572

                     19                     20                     21
                      A                      A                      A
 Frequencies --    832.5886               889.5985               916.4768
 Red. masses --      1.7931                 1.7805                 2.1431
 Frc consts  --      0.7324                 0.8302                 1.0605
 IR Inten    --    188.4101                86.4736                39.8913

                     22                     23                     24
                      A                      A                      A
 Frequencies --    953.8707               976.6254               991.6444
 Red. masses --      2.8350                 4.0245                 3.6107
 Frc consts  --      1.5198                 2.2616                 2.0920
 IR Inten    --     80.5654               219.8107               208.9539

                     25                     26                     27
                      A                      A                      A
 Frequencies --   1110.4131              1145.0008              1181.5724
 Red. masses --      2.3124                 3.1922                 5.5448
 Frc consts  --      1.6799                 2.4658                 4.5610
 IR Inten    --     55.7495                48.3177               322.5444

                     28                     29                     30
                      A                      A                      A
 Frequencies --   1258.2113              1317.3521              1406.4344
 Red. masses --      1.1116                 1.1549                 1.2593
 Frc consts  --      1.0369                 1.1809                 1.4676
 IR Inten    --     10.0795                37.2436                 4.8823

                     31                     32                     33
                      A                      A                      A
 Frequencies --   1419.1444              1459.1483              1499.2369
 Red. masses --      1.2822                 1.2370                 1.0922
 Frc consts  --      1.5214                 1.5518                 1.4464
 IR Inten    --     11.4366                40.3141                 2.5677

                     34                     35                     36
                      A                      A                      A
 Frequencies --   1508.0279              3011.9147              3044.8061
 Red. masses --      1.0835                 1.0683                 1.0591
 Frc consts  --      1.4518                 5.7098                 5.7849
 IR Inten    --      4.5001                47.4371                31.3467

                     37                     38                     39
                      A                      A                      A
 Frequencies --   3096.2561              3101.2449              3806.2776
 Red. masses --      1.0971                 1.1051                 1.0669
 Frc consts  --      6.1968                 6.2624                 9.1073
 IR Inten    --     38.6540                40.3803               251.5945

                     40                     41                     42
                      A                      A                      A
 Frequencies --   3972.8181              3981.8260              3984.4516
 Red. masses --      1.0662                 1.0663                 1.0667
 Frc consts  --      9.9151                 9.9606                 9.9776
 IR Inten    --    112.3159               113.0712                80.3828

 - Thermochemistry -
 -------------------
 Temperature   298.150 Kelvin.  Pressure   1.00000 Atm.
 Atom     1 has atomic number 14 and mass  27.97693

 Molecular mass:   140.01410 amu.
 Principal axes and moments of inertia in atomic units:
                           1         2         3
     Eigenvalues --   624.891251592.713471732.26681
           X            0.99980  -0.01972  -0.00292
           Y            0.01961   0.99925  -0.03351
           Z            0.00358   0.03345   0.99943
 This molecule is an asymmetric top.
 Rotational symmetry number  1.
 Warning -- assumption of classical behavior for rotation
           may cause significant error
 Rotational temperatures (Kelvin)      0.13861     0.05438     0.05000
 Rotational constants (GHZ):           2.88809     1.13312     1.04184
 Zero-point vibrational energy     320206.2 (Joules/Mol)
                                   76.53112 (Kcal/Mol)
 Warning -- explicit consideration of  15 degrees of freedom as
           vibrations may cause significant error
 Vibrational temperatures:     48.08   124.09   206.78   236.53   283.60
          (Kelvin)            320.57   361.88   417.28   458.78   510.84
                              529.46   567.64   600.81   742.26   805.24
                             1011.07  1182.47  1188.35  1197.91  1279.93
                             1318.61  1372.41  1405.15  1426.76  1597.64
                             1647.40  1700.02  1810.29  1895.38  2023.55
                             2041.83  2099.39  2157.07  2169.72  4333.47
                             4380.80  4454.82  4462.00  5476.38  5716.00
                             5728.96  5732.74

 Zero-point correction=                           0.121960 (Hartree/Particle)
 Thermal correction to Energy=                    0.132474
 Thermal correction to Enthalpy=                  0.133418
 Thermal correction to Gibbs Free Energy=         0.085967
 Sum of electronic and zero-point Energies=           -746.796066
 Sum of electronic and thermal Energies=              -746.785553
 Sum of electronic and thermal Enthalpies=            -746.784609
 Sum of electronic and thermal Free Energies=         -746.832059

                     E (Thermal)             CV                S
                      KCal/Mol        Cal/Mol-Kelvin    Cal/Mol-Kelvin
 Total                   83.128             37.128             99.868
 Electronic               0.000              0.000              0.000
 Translational            0.889              2.981             40.721
 Rotational               0.889              2.981             28.935
 Vibrational             81.351             31.167             30.212
 Vibration     1          0.594              1.983              5.615
 Vibration     2          0.601              1.959              3.743
 Vibration     3          0.616              1.909              2.754
 Vibration     4          0.623              1.886              2.499
 Vibration     5          0.636              1.844              2.160
 Vibration     6          0.648              1.806              1.936
 Vibration     7          0.663              1.760              1.720
 Vibration     8          0.686              1.692              1.474
 Vibration     9          0.705              1.638              1.316
 Vibration    10          0.731              1.565              1.144
 Vibration    11          0.741              1.538              1.088
 Vibration    12          0.761              1.482              0.983
 Vibration    13          0.781              1.432              0.900
 Vibration    14          0.871              1.215              0.620
 Vibration    15          0.915              1.119              0.524

                           ! Non-Optimized Parameters !
 Normal termination of Gaussian 16 at Tue Sep 19 21:21:47 2023.
