 Gaussian 16, Revision C.01,
 Gaussian 16:  ES64L-G16RevC.01  3-Jul-2019

 ---------------------------------------------
 # opt freq wb97xd/Def2TZVPP geom=connectivity
 ---------------------------------------------

 -------------------
 Title Card Required
 -------------------
 Symbolic Z-matrix:
 Charge = -2 Multiplicity = 1

 SCF Done:  E(RwB97XD) =  -976.831295059     A.U. after   15 cycles
 SCF Done:  E(RwB97XD) =  -976.863179902     A.U. after   13 cycles
 SCF Done:  E(RwB97XD) =  -976.873675138     A.U. after   14 cycles
 SCF Done:  E(RwB97XD) =  -976.873910383     A.U. after   12 cycles
 SCF Done:  E(RwB97XD) =  -976.873953121     A.U. after   11 cycles
 SCF Done:  E(RwB97XD) =  -976.873966678     A.U. after   11 cycles
 SCF Done:  E(RwB97XD) =  -976.873968446     A.U. after    9 cycles
 SCF Done:  E(RwB97XD) =  -976.873973592     A.U. after    9 cycles
 SCF Done:  E(RwB97XD) =  -976.873977425     A.U. after    9 cycles
 SCF Done:  E(RwB97XD) =  -976.873977914     A.U. after    9 cycles
 SCF Done:  E(RwB97XD) =  -976.873977005     A.U. after    9 cycles
 SCF Done:  E(RwB97XD) =  -976.873976716     A.U. after    9 cycles
 SCF Done:  E(RwB97XD) =  -976.873977427     A.U. after    9 cycles
 SCF Done:  E(RwB97XD) =  -976.873976770     A.U. after    9 cycles
 SCF Done:  E(RwB97XD) =  -976.873977595     A.U. after    9 cycles
 Optimization completed.
    -- Stationary point found.
 Normal termination of Gaussian 16 at Sun Oct 22 18:58:16 2023.

 ----------------------------------------------------------------------
 #N Geom=AllCheck Guess=TCheck SCRF=Check GenChk RwB97XD/def2TZVPP Freq
 ----------------------------------------------------------------------

 Structure from the checkpoint file:  "HL3EthyleneGlycolConformerOpt_6.chk"
 -------------------
 Title Card Required
 -------------------
 Charge = -2 Multiplicity = 1

                         Standard orientation:
 ---------------------------------------------------------------------
 Center     Atomic      Atomic             Coordinates (Angstroms)
 Number     Number       Type             X           Y           Z
 ---------------------------------------------------------------------
      1         14           0       -0.001583   -0.003668    0.000011
      2          8           0       -0.654085    1.332044    1.024776
      3          8           0        0.770680   -1.267239   -1.030300
      4          8           0        1.434432   -0.130887    1.087390
      5          8           0       -1.442451   -0.023518   -1.087245
      6          8           0       -0.868625   -1.200790    1.034411
      7          8           0        0.752747    1.274262   -1.028548
      8          6           0        0.731249    2.509289   -0.437686
      9          1           0        1.619413    2.674181    0.210366
     10          1           0        0.723714    3.321933   -1.192780
     11          6           0       -0.527748    2.561693    0.436005
     12          1           0       -0.451525    3.369596    1.192483
     13          1           0       -1.398891    2.802623   -0.211544
     14          6           0        2.083776   -1.481594   -0.707626
     15          1           0        2.400224   -2.516380   -0.952810
     16          1           0        2.760906   -0.794590   -1.259700
     17          6           0        2.226586   -1.209830    0.795382
     18          1           0        3.286908   -1.020641    1.062040
     19          1           0        1.908922   -2.116929    1.353755
     20          6           0       -2.193041   -1.319176    0.708710
     21          1           0       -2.819499   -0.583305    1.257747
     22          1           0       -2.585140   -2.327474    0.955150
     23          6           0       -2.312305   -1.040982   -0.795231
     24          1           0       -2.060381   -1.969948   -1.351029
     25          1           0       -3.355185   -0.775089   -1.065006
 ---------------------------------------------------------------------

 SCF Done:  E(RwB97XD) =  -976.873977595     A.U. after    1 cycles

 The electronic state is 1-A.
 Alpha  occ. eigenvalues --  -65.96877 -18.88223 -18.88222 -18.88205 -18.88202
 Alpha  occ. eigenvalues --  -18.88164 -18.88162 -10.02195 -10.02187 -10.02186
 Alpha  occ. eigenvalues --  -10.02173 -10.02156 -10.02150  -5.07376  -3.41964
 Alpha  occ. eigenvalues --   -3.41927  -3.41909  -0.81241  -0.78306  -0.78286
 Alpha  occ. eigenvalues --   -0.74334  -0.73271  -0.73165  -0.51524  -0.49321
 Alpha  occ. eigenvalues --   -0.49296  -0.38836  -0.37852  -0.37376  -0.30675
 Alpha  occ. eigenvalues --   -0.27761  -0.26512  -0.26464  -0.25391  -0.25245
 Alpha  occ. eigenvalues --   -0.24567  -0.20507  -0.20485  -0.18991  -0.18263
 Alpha  occ. eigenvalues --   -0.17841  -0.17621  -0.15551  -0.15083  -0.07586
 Alpha  occ. eigenvalues --   -0.06286  -0.06273  -0.06229  -0.04239  -0.04194
 Alpha  occ. eigenvalues --   -0.03993  -0.02871  -0.02156  -0.01195   0.00590
 Alpha  occ. eigenvalues --    0.01253
 Alpha virt. eigenvalues --    0.37140   0.37870   0.38139   0.40946   0.41329
 Alpha virt. eigenvalues --    0.41396   0.41832   0.42007   0.42982   0.43395
 Alpha virt. eigenvalues --    0.46516   0.46734   0.47969   0.48273   0.48315

 Mulliken charges:
               1
     1  Si   0.816706
     2  O   -0.495006
     3  O   -0.494525
     4  O   -0.492988
     5  O   -0.492972
     6  O   -0.494556
     7  O   -0.495603
     8  C    0.124182
     9  H   -0.044298
    10  H   -0.052715
    11  C    0.124730
    12  H   -0.053059
    13  H   -0.044638
    14  C    0.117276
    15  H   -0.057815
    16  H   -0.041965
    17  C    0.127196
    18  H   -0.056203
    19  H   -0.041374
    20  C    0.117553
    21  H   -0.042061
    22  H   -0.057896
    23  C    0.127189
    24  H   -0.041178
    25  H   -0.055978
 Sum of Mulliken charges =  -2.00000

 Dipole moment (field-independent basis, Debye):
    X=              0.0103    Y=              0.0175    Z=             -0.0031  Tot=              0.0206
 Quadrupole moment (field-independent basis, Debye-Ang):
   XX=           -113.1598   YY=           -112.7551   ZZ=           -110.7983
   XY=              0.0114   XZ=              0.0458   YZ=             -0.0038

  Exact polarizability:     141.044       0.026     140.773       0.108      -0.018     110.556
 Approx polarizability:     136.472       0.101     138.236       0.966      -0.041     122.699

                      1                      2                      3
                      A                      A                      A
 Frequencies --     61.4676                64.3404               104.3413
 Red. masses --      3.1428                 3.0827                 3.5911
 Frc consts  --      0.0070                 0.0075                 0.0230
 IR Inten    --      2.5088                 2.5203                 5.4089

                      4                      5                      6
                      A                      A                      A
 Frequencies --    165.0112               166.9317               181.6163
 Red. masses --      2.8254                 2.9871                 2.3090
 Frc consts  --      0.0453                 0.0490                 0.0449
 IR Inten    --      0.4798                 0.0846                 0.2397

                      7                      8                      9
                      A                      A                      A
 Frequencies --    273.2476               285.4683               311.3630
 Red. masses --      2.8990                 3.1271                 4.0688
 Frc consts  --      0.1275                 0.1501                 0.2324
 IR Inten    --      0.8648                 0.1105                 1.5926

                     10                     11                     12
                      A                      A                      A
 Frequencies --    348.8389               367.3478               367.8067
 Red. masses --      6.3892                 7.5476                 7.4224
 Frc consts  --      0.4581                 0.6001                 0.5916
 IR Inten    --      0.1983                 1.3468                 1.6081

                     13                     14                     15
                      A                      A                      A
 Frequencies --    373.3162               385.1540               390.9273
 Red. masses --      6.9901                 6.8629                 8.0318
 Frc consts  --      0.5740                 0.5998                 0.7232
 IR Inten    --      7.1051                 0.6119                 8.9422

                     16                     17                     18
                      A                      A                      A
 Frequencies --    551.1616               564.5566               566.1195
 Red. masses --      6.7983                10.6193                10.5433
 Frc consts  --      1.2168                 1.9942                 1.9909
 IR Inten    --    113.6556                 5.3650                 5.9079

                     19                     20                     21
                      A                      A                      A
 Frequencies --    601.6930               610.6212               611.6030
 Red. masses --     11.0628                 4.8349                 4.6238
 Frc consts  --      2.3598                 1.0622                 1.0190
 IR Inten    --      3.1096               247.3213               239.6654

                     22                     23                     24
                      A                      A                      A
 Frequencies --    651.5544               653.1507               656.5359
 Red. masses --      3.2128                 3.4681                 2.5632
 Frc consts  --      0.8036                 0.8717                 0.6509
 IR Inten    --    242.9236               310.2011               122.9768

                     25                     26                     27
                      A                      A                      A
 Frequencies --    914.4937               914.8201               915.6674
 Red. masses --      2.3652                 2.3449                 2.3274
 Frc consts  --      1.1654                 1.1562                 1.1497
 IR Inten    --     12.7678                17.9189                 0.6827

                     28                     29                     30
                      A                      A                      A
 Frequencies --    923.9405               925.2133               930.5169
 Red. masses --      1.8092                 1.8162                 1.8277
 Frc consts  --      0.9100                 0.9160                 0.9324
 IR Inten    --     20.3758                53.7675                56.7404

                     31                     32                     33
                      A                      A                      A
 Frequencies --   1143.1553              1143.6730              1147.9323
 Red. masses --      2.4582                 2.4379                 2.0995
 Frc consts  --      1.8927                 1.8788                 1.6300
 IR Inten    --    171.1955               169.0826                 0.0093

                     34                     35                     36
                      A                      A                      A
 Frequencies --   1174.2700              1175.9814              1183.9624
 Red. masses --      4.0052                 3.8727                 3.5212
 Frc consts  --      3.2539                 3.1555                 2.9082
 IR Inten    --      9.0962                27.6112                 9.1000

                     37                     38                     39
                      A                      A                      A
 Frequencies --   1190.3588              1190.7216              1210.0831
 Red. masses --      3.1452                 3.1302                 2.7601
 Frc consts  --      2.6258                 2.6148                 2.3813
 IR Inten    --    292.5529               306.8708                 0.0373

                     40                     41                     42
                      A                      A                      A
 Frequencies --   1249.7297              1250.0887              1250.5679
 Red. masses --      1.2338                 1.2264                 1.2406
 Frc consts  --      1.1353                 1.1292                 1.1431
 IR Inten    --     18.6569                15.5408                12.2777

                     43                     44                     45
                      A                      A                      A
 Frequencies --   1251.5297              1252.4521              1254.5756
 Red. masses --      1.2709                 1.2560                 1.4181
 Frc consts  --      1.1728                 1.1608                 1.3150
 IR Inten    --     13.3174                 0.5257                 2.2268

                     46                     47                     48
                      A                      A                      A
 Frequencies --   1371.1899              1371.8443              1378.9819
 Red. masses --      1.3408                 1.3431                 1.3738
 Frc consts  --      1.4853                 1.4892                 1.5391
 IR Inten    --     10.0114                10.8041                21.5229

                     49                     50                     51
                      A                      A                      A
 Frequencies --   1383.6479              1384.5263              1386.8690
 Red. masses --      1.3175                 1.3204                 1.3359
 Frc consts  --      1.4861                 1.4913                 1.5139
 IR Inten    --     35.6300                29.7099                 4.2177

                     52                     53                     54
                      A                      A                      A
 Frequencies --   1484.6563              1485.4027              1486.5987
 Red. masses --      1.0919                 1.0925                 1.0928
 Frc consts  --      1.4180                 1.4203                 1.4229
 IR Inten    --      1.9317                 6.2396                 2.9562

                     55                     56                     57
                      A                      A                      A
 Frequencies --   1491.7476              1492.9260              1493.2064
 Red. masses --      1.0974                 1.0965                 1.0969
 Frc consts  --      1.4388                 1.4400                 1.4410
 IR Inten    --     10.4027                14.0287                 6.3714

                     58                     59                     60
                      A                      A                      A
 Frequencies --   2808.3118              2810.8382              2811.1042
 Red. masses --      1.0888                 1.0914                 1.0905
 Frc consts  --      5.0591                 5.0803                 5.0772
 IR Inten    --      9.6076                 4.1831                 6.6259

                     61                     62                     63
                      A                      A                      A
 Frequencies --   2823.3429              2825.2314              2825.6465
 Red. masses --      1.0529                 1.0507                 1.0511
 Frc consts  --      4.9448                 4.9412                 4.9446
 IR Inten    --    186.7243               133.5979               282.5528

                     64                     65                     66
                      A                      A                      A
 Frequencies --   2851.5245              2853.1792              2854.1283
 Red. masses --      1.1050                 1.0959                 1.1054
 Frc consts  --      5.2936                 5.2563                 5.3052
 IR Inten    --    182.5732               748.1873               763.2270

                     67                     68                     69
                      A                      A                      A
 Frequencies --   2854.7661              2856.0093              2867.9621
 Red. masses --      1.0691                 1.0639                 1.0600
 Frc consts  --      5.1335                 5.1128                 5.1368
 IR Inten    --    538.6483               694.3570                 4.8329

 - Thermochemistry -
 -------------------
 Temperature   298.150 Kelvin.  Pressure   1.00000 Atm.
 Atom     1 has atomic number 14 and mass  27.97693

 Molecular mass:   208.04032 amu.
 Principal axes and moments of inertia in atomic units:
                           1         2         3
     Eigenvalues --  1954.991002007.099502880.91644
           X            1.00000  -0.00108  -0.00043
           Y            0.00108   1.00000   0.00002
           Z            0.00043  -0.00002   1.00000
 This molecule is an asymmetric top.
 Rotational symmetry number  1.
 Warning -- assumption of classical behavior for rotation
           may cause significant error
 Rotational temperatures (Kelvin)      0.04430     0.04315     0.03006
 Rotational constants (GHZ):           0.92315     0.89918     0.62645
 Zero-point vibrational energy     503397.9 (Joules/Mol)
                                  120.31498 (Kcal/Mol)
 Warning -- explicit consideration of  21 degrees of freedom as
           vibrations may cause significant error
 Vibrational temperatures:     88.44    92.57   150.12   237.41   240.18
          (Kelvin)            261.31   393.14   410.73   447.98   501.90
                              528.53   529.19   537.12   554.15   562.46
                              793.00   812.27   814.52   865.70   878.55
                              879.96   937.44   939.74   944.61  1315.75
                             1316.22  1317.44  1329.34  1331.18  1338.81
                             1644.75  1645.49  1651.62  1689.51  1691.97
                             1703.46  1712.66  1713.18  1741.04  1798.08
                             1798.60  1799.29  1800.67  1802.00  1805.05
                             1972.84  1973.78  1984.05  1990.76  1992.02
                             1995.40  2136.09  2137.16  2138.88  2146.29
                             2147.99  2148.39  4040.53  4044.17  4044.55
                             4062.16  4064.88  4065.48  4102.71  4105.09
                             4106.45  4107.37  4109.16  4126.36

 Zero-point correction=                           0.191734 (Hartree/Particle)
 Thermal correction to Energy=                    0.204100
 Thermal correction to Enthalpy=                  0.205044
 Thermal correction to Gibbs Free Energy=         0.153493
 Sum of electronic and zero-point Energies=           -976.682243
 Sum of electronic and thermal Energies=              -976.669878
 Sum of electronic and thermal Enthalpies=            -976.668934
 Sum of electronic and thermal Free Energies=         -976.720484

                     E (Thermal)             CV                S
                      KCal/Mol        Cal/Mol-Kelvin    Cal/Mol-Kelvin
 Total                  128.075             47.928            108.498
 Electronic               0.000              0.000              0.000
 Translational            0.889              2.981             41.902
 Rotational               0.889              2.981             30.803
 Vibrational            126.297             41.967             35.793
 Vibration     1          0.597              1.973              4.410
 Vibration     2          0.597              1.971              4.319
 Vibration     3          0.605              1.946              3.372
 Vibration     4          0.623              1.885              2.492
 Vibration     5          0.624              1.883              2.470
 Vibration     6          0.630              1.865              2.312
 Vibration     7          0.676              1.723              1.576
 Vibration     8          0.683              1.701              1.501
 Vibration     9          0.700              1.652              1.355
 Vibration    10          0.726              1.578              1.171
 Vibration    11          0.740              1.539              1.091
 Vibration    12          0.740              1.538              1.089
 Vibration    13          0.745              1.527              1.066
 Vibration    14          0.754              1.502              1.019
 Vibration    15          0.759              1.490              0.997
 Vibration    16          0.906              1.137              0.542
 Vibration    17          0.920              1.108              0.515
 Vibration    18          0.922              1.105              0.512
 Vibration    19          0.960              1.028              0.447
 Vibration    20          0.970              1.009              0.432
 Vibration    21          0.971              1.007              0.430

                           ! Non-Optimized Parameters !
 Normal termination of Gaussian 16 at Sun Oct 22 19:41:52 2023.
