 Gaussian 16, Revision C.01,
 Gaussian 16:  ES64L-G16RevC.01  3-Jul-2019

 ---------------------------------------------
 # opt freq wb97xd/Def2TZVPP geom=connectivity
 ---------------------------------------------

 -------------------
 Title Card Required
 -------------------
 Symbolic Z-matrix:
 Charge = -1 Multiplicity = 1

 SCF Done:  E(RwB97XD) =  -900.155996250     A.U. after   14 cycles
 SCF Done:  E(RwB97XD) =  -900.183832020     A.U. after   12 cycles
 SCF Done:  E(RwB97XD) =  -900.191658748     A.U. after   12 cycles
 SCF Done:  E(RwB97XD) =  -900.195148617     A.U. after   12 cycles
 SCF Done:  E(RwB97XD) =  -900.198352299     A.U. after   13 cycles
 SCF Done:  E(RwB97XD) =  -900.200712695     A.U. after   13 cycles
 SCF Done:  E(RwB97XD) =  -900.203265997     A.U. after   12 cycles
 SCF Done:  E(RwB97XD) =  -900.205010596     A.U. after   13 cycles
 SCF Done:  E(RwB97XD) =  -900.206358598     A.U. after   12 cycles
 SCF Done:  E(RwB97XD) =  -900.207209693     A.U. after   11 cycles
 SCF Done:  E(RwB97XD) =  -900.220038532     A.U. after   12 cycles
 SCF Done:  E(RwB97XD) =  -900.220148676     A.U. after   10 cycles
 SCF Done:  E(RwB97XD) =  -900.220200983     A.U. after   10 cycles
 SCF Done:  E(RwB97XD) =  -900.220270337     A.U. after   11 cycles
 SCF Done:  E(RwB97XD) =  -900.220302443     A.U. after   11 cycles
 SCF Done:  E(RwB97XD) =  -900.220321103     A.U. after   11 cycles
 SCF Done:  E(RwB97XD) =  -900.220327807     A.U. after   10 cycles
 SCF Done:  E(RwB97XD) =  -900.220330296     A.U. after    9 cycles
 SCF Done:  E(RwB97XD) =  -900.220330752     A.U. after    8 cycles
 Optimization completed.
    -- Stationary point found.
 Normal termination of Gaussian 16 at Sat Mar 30 07:01:20 2024.

 ----------------------------------------------------------------------
 #N Geom=AllCheck Guess=TCheck SCRF=Check GenChk RwB97XD/def2TZVPP Freq
 ----------------------------------------------------------------------

 Structure from the checkpoint file:  "PbiLmL_ConfOpt_25.chk"
 -------------------
 Title Card Required
 -------------------
 Charge = -1 Multiplicity = 1

                         Standard orientation:
 ---------------------------------------------------------------------
 Center     Atomic      Atomic             Coordinates (Angstroms)
 Number     Number       Type             X           Y           Z
 ---------------------------------------------------------------------
      1         14           0       -0.458990    0.393187   -0.218494
      2          8           0        1.031195   -0.016571   -1.027880
      3          8           0       -0.864374    1.419777   -1.481820
      4          1           0       -0.159858    1.363852   -2.125530
      5          8           0       -1.965376    0.791089    0.656443
      6          8           0        0.404079    1.006665    1.115471
      7          1           0       -0.229730    1.252845    1.786673
      8          8           0       -0.976007   -1.234552   -0.263952
      9          6           0       -2.201452   -1.497141    0.347841
     10          1           0       -2.759102   -2.245336   -0.228740
     11          1           0       -2.043258   -1.899620    1.360086
     12          6           0       -2.941207   -0.159730    0.425946
     13          1           0       -3.470028    0.027139   -0.524685
     14          1           0       -3.691609   -0.162781    1.228071
     15          6           0        1.930400   -0.984856   -0.603933
     16          1           0        2.211141   -1.623855   -1.456651
     17          1           0        1.490591   -1.646137    0.154571
     18          6           0        3.209156   -0.378023   -0.043872
     19          1           0        3.605026    0.327290   -0.790636
     20          1           0        3.953053   -1.174139    0.086805
     21          8           0        3.044717    0.254700    1.200401
     22          1           0        2.144376    0.625753    1.223755
 ---------------------------------------------------------------------

 SCF Done:  E(RwB97XD) =  -900.220330752     A.U. after    1 cycles

 The electronic state is 1-A.
 Alpha  occ. eigenvalues --  -66.13265 -19.08125 -19.07411 -19.07266 -19.05995
 Alpha  occ. eigenvalues --  -19.05051 -19.04997 -10.18118 -10.17786 -10.17607
 Alpha  occ. eigenvalues --  -10.17202  -5.24358  -3.58944  -3.58909  -3.58813
 Alpha  occ. eigenvalues --   -0.98055  -0.96557  -0.93561  -0.92491  -0.91233
 Alpha  occ. eigenvalues --   -0.89757  -0.67493  -0.66671  -0.55748  -0.54806
 Alpha  occ. eigenvalues --   -0.47923  -0.44796  -0.44402  -0.42476  -0.41218
 Alpha  occ. eigenvalues --   -0.40852  -0.39106  -0.38458  -0.36392  -0.34902
 Alpha  occ. eigenvalues --   -0.33977  -0.33090  -0.29602  -0.27413  -0.26444
 Alpha  occ. eigenvalues --   -0.26061  -0.24191  -0.23672  -0.22395  -0.20950
 Alpha  occ. eigenvalues --   -0.20908  -0.20645  -0.17826  -0.17681
 Alpha virt. eigenvalues --    0.24563   0.25502   0.26868   0.27396   0.29130
 Alpha virt. eigenvalues --    0.30041   0.30209   0.31566   0.32396   0.33161
 Alpha virt. eigenvalues --    0.33711   0.34220   0.36119   0.37442   0.38310

 Mulliken charges:
               1
     1  Si   0.819526
     2  O   -0.528588
     3  O   -0.433030
     4  H    0.152504
     5  O   -0.548392
     6  O   -0.427929
     7  H    0.148349
     8  O   -0.413658
     9  C    0.073618
    10  H    0.019316
    11  H    0.017338
    12  C    0.064760
    13  H    0.017086
    14  H    0.015008
    15  C    0.054576
    16  H    0.017826
    17  H    0.033784
    18  C    0.111130
    19  H    0.013522
    20  H    0.014346
    21  O   -0.455093
    22  H    0.234000
 Sum of Mulliken charges =  -1.00000

 Dipole moment (field-independent basis, Debye):
    X=             -1.0498    Y=             -2.2190    Z=             -0.0083  Tot=              2.4548
 Quadrupole moment (field-independent basis, Debye-Ang):
   XX=            -96.9176   YY=            -82.5888   ZZ=            -79.0062
   XY=              2.2380   XZ=             -7.5360   YZ=              0.0388

  Exact polarizability:     113.438       0.015      89.680      -3.284      -0.122      88.050
 Approx polarizability:     103.812      -0.604      96.675      -2.533       0.279      98.154

                      1                      2                      3
                      A                      A                      A
 Frequencies --     32.6257                96.1815               102.8748
 Red. masses --      5.6624                 3.4011                 4.1995
 Frc consts  --      0.0036                 0.0185                 0.0262
 IR Inten    --      0.6217                 4.1496                 1.8771

                      4                      5                      6
                      A                      A                      A
 Frequencies --    120.9321               185.1180               196.5199
 Red. masses --      3.9464                 6.4112                 3.6677
 Frc consts  --      0.0340                 0.1294                 0.0835
 IR Inten    --      1.5167                 0.5887                 4.7151

                      7                      8                      9
                      A                      A                      A
 Frequencies --    209.2709               260.5943               288.2062
 Red. masses --      2.9863                 2.8161                 3.3801
 Frc consts  --      0.0771                 0.1127                 0.1654
 IR Inten    --      2.4640                 1.3697                 0.0962

                     10                     11                     12
                      A                      A                      A
 Frequencies --    378.4666               387.7825               416.0451
 Red. masses --      4.6930                 4.9713                 4.6118
 Frc consts  --      0.3961                 0.4405                 0.4703
 IR Inten    --     31.9935                 1.3482                24.5736

                     13                     14                     15
                      A                      A                      A
 Frequencies --    428.1814               471.9874               515.5210
 Red. masses --      4.6530                 5.7897                 1.8694
 Frc consts  --      0.5026                 0.7599                 0.2927
 IR Inten    --      4.6661                15.3092                26.8340

                     16                     17                     18
                      A                      A                      A
 Frequencies --    530.4326               535.8647               560.7871
 Red. masses --      1.7433                 1.8020                 2.0170
 Frc consts  --      0.2890                 0.3049                 0.3737
 IR Inten    --     24.1504                42.8240                82.7740

                     19                     20                     21
                      A                      A                      A
 Frequencies --    635.7708               654.0259               678.4016
 Red. masses --      2.9161                 4.3947                 6.3466
 Frc consts  --      0.6945                 1.1076                 1.7209
 IR Inten    --      9.4309               235.5911                 1.1281

                     22                     23                     24
                      A                      A                      A
 Frequencies --    701.1656               801.4967               867.6692
 Red. masses --      1.0717                 9.2310                12.3688
 Frc consts  --      0.3104                 3.4938                 5.4864
 IR Inten    --    109.0268               227.8887               248.8159

                     25                     26                     27
                      A                      A                      A
 Frequencies --    886.5787               918.4201               933.5117
 Red. masses --      2.7468                 1.7580                 2.1123
 Frc consts  --      1.2721                 0.8737                 1.0846
 IR Inten    --     65.3161                33.4723                47.6169

                     28                     29                     30
                      A                      A                      A
 Frequencies --    936.1406              1004.2909              1048.4801
 Red. masses --      2.1464                 1.1688                 1.2883
 Frc consts  --      1.1083                 0.6946                 0.8344
 IR Inten    --     11.7889               105.0683               469.3872

                     31                     32                     33
                      A                      A                      A
 Frequencies --   1130.0641              1145.7014              1150.8703
 Red. masses --      2.4974                 3.0759                 2.7545
 Frc consts  --      1.8790                 2.3788                 2.1496
 IR Inten    --     28.1975                97.8469                84.0941

                     34                     35                     36
                      A                      A                      A
 Frequencies --   1168.3331              1181.2334              1192.1902
 Red. masses --      3.6252                 3.5847                 3.9729
 Frc consts  --      2.9155                 2.9470                 3.3269
 IR Inten    --     21.7441               192.3880                96.2243

                     37                     38                     39
                      A                      A                      A
 Frequencies --   1261.6515              1263.6296              1274.0549
 Red. masses --      1.1727                 1.1756                 1.1198
 Frc consts  --      1.0998                 1.1059                 1.0709
 IR Inten    --      7.2722                11.9046                 1.6869

                     40                     41                     42
                      A                      A                      A
 Frequencies --   1304.7535              1379.5423              1393.4564
 Red. masses --      1.1457                 1.3154                 1.2759
 Frc consts  --      1.1492                 1.4750                 1.4597
 IR Inten    --     14.0533                 7.2774                 4.7864

                     43                     44                     45
                      A                      A                      A
 Frequencies --   1394.7500              1403.5451              1502.8140
 Red. masses --      1.3208                 1.3441                 1.0834
 Frc consts  --      1.5139                 1.5600                 1.4416
 IR Inten    --      7.7093                14.5519                 2.8558

                     46                     47                     48
                      A                      A                      A
 Frequencies --   1503.6238              1511.9511              1518.4256
 Red. masses --      1.0802                 1.0887                 1.0964
 Frc consts  --      1.4390                 1.4663                 1.4893
 IR Inten    --      5.1278                 0.2660                 5.5052

                     49                     50                     51
                      A                      A                      A
 Frequencies --   1523.8731              2925.3042              2944.1672
 Red. masses --      1.1823                 1.0715                 1.0665
 Frc consts  --      1.6176                 5.4022                 5.4469
 IR Inten    --     61.9029               112.8781                74.3532

                     52                     53                     54
                      A                      A                      A
 Frequencies --   2953.1019              2963.8742              2996.3924
 Red. masses --      1.0663                 1.0673                 1.0861
 Frc consts  --      5.4787                 5.5243                 5.7455
 IR Inten    --     98.6293               147.0427               199.8233

                     55                     56                     57
                      A                      A                      A
 Frequencies --   3009.2135              3014.2724              3020.5018
 Red. masses --      1.0912                 1.0968                 1.0952
 Frc consts  --      5.8219                 5.8714                 5.8870
 IR Inten    --     82.9081               132.6796               124.5601

                     58                     59                     60
                      A                      A                      A
 Frequencies --   3577.2051              3940.9801              3945.6225
 Red. masses --      1.0686                 1.0645                 1.0647
 Frc consts  --      8.0567                 9.7407                 9.7656
 IR Inten    --    664.3916                33.4614                21.3086

 - Thermochemistry -
 -------------------
 Temperature   298.150 Kelvin.  Pressure   1.00000 Atm.
 Atom     1 has atomic number 14 and mass  27.97693

 Molecular mass:   183.03249 amu.
 Principal axes and moments of inertia in atomic units:
                           1         2         3
     Eigenvalues --   986.048212855.526062927.28814
           X            0.99989   0.00321  -0.01428
           Y           -0.00355   0.99972  -0.02351
           Z            0.01420   0.02356   0.99962
 This molecule is an asymmetric top.
 Rotational symmetry number  1.
 Warning -- assumption of classical behavior for rotation
           may cause significant error
 Rotational temperatures (Kelvin)      0.08784     0.03033     0.02959
 Rotational constants (GHZ):           1.83028     0.63202     0.61652
 Zero-point vibrational energy     456246.4 (Joules/Mol)
                                  109.04551 (Kcal/Mol)
 Warning -- explicit consideration of  18 degrees of freedom as
           vibrations may cause significant error
 Vibrational temperatures:     46.94   138.38   148.01   173.99   266.34
          (Kelvin)            282.75   301.09   374.94   414.66   544.53
                              557.93   598.60   616.06   679.08   741.72
                              763.17   770.99   806.85   914.73   941.00
                              976.07  1008.82  1153.17  1248.38  1275.59
                             1321.40  1343.12  1346.90  1444.95  1508.53
                             1625.91  1648.41  1655.85  1680.97  1699.53
                             1715.30  1815.24  1818.08  1833.08  1877.25
                             1984.85  2004.87  2006.73  2019.39  2162.21
                             2163.38  2175.36  2184.68  2192.51  4208.86
                             4236.00  4248.85  4264.35  4311.14  4329.59
                             4336.87  4345.83  5146.80  5670.19  5676.87

 Zero-point correction=                           0.173775 (Hartree/Particle)
 Thermal correction to Energy=                    0.185658
 Thermal correction to Enthalpy=                  0.186603
 Thermal correction to Gibbs Free Energy=         0.135682
 Sum of electronic and zero-point Energies=           -900.046556
 Sum of electronic and thermal Energies=              -900.034672
 Sum of electronic and thermal Enthalpies=            -900.033728
 Sum of electronic and thermal Free Energies=         -900.084649

                     E (Thermal)             CV                S
                      KCal/Mol        Cal/Mol-Kelvin    Cal/Mol-Kelvin
 Total                  116.502             44.800            107.172
 Electronic               0.000              0.000              0.000
 Translational            0.889              2.981             41.520
 Rotational               0.889              2.981             30.489
 Vibrational            114.725             38.838             35.163
 Vibration     1          0.594              1.983              5.663
 Vibration     2          0.603              1.952              3.530
 Vibration     3          0.605              1.947              3.399
 Vibration     4          0.609              1.932              3.085
 Vibration     5          0.631              1.860              2.276
 Vibration     6          0.636              1.845              2.165
 Vibration     7          0.642              1.827              2.050
 Vibration     8          0.669              1.745              1.658
 Vibration     9          0.685              1.696              1.484
 Vibration    10          0.749              1.516              1.045
 Vibration    11          0.756              1.496              1.009
 Vibration    12          0.779              1.435              0.906
 Vibration    13          0.790              1.409              0.865
 Vibration    14          0.829              1.312              0.732
 Vibration    15          0.871              1.216              0.620
 Vibration    16          0.885              1.183              0.586
 Vibration    17          0.891              1.171              0.574
 Vibration    18          0.916              1.116              0.522

                           ! Non-Optimized Parameters !
 Normal termination of Gaussian 16 at Sat Mar 30 08:20:19 2024.
