 Gaussian 16, Revision B.01,
 Gaussian 16:  ES64L-G16RevB.01 20-Dec-2017

 ---------------------------------------------
 # opt freq wb97xd/Def2TZVPP geom=connectivity
 ---------------------------------------------

 -------------------
 Title Card Required
 -------------------
 Symbolic Z-matrix:
 Charge =  0 Multiplicity = 1

 SCF Done:  E(RwB97XD) =  -824.286117982     A.U. after   14 cycles
 SCF Done:  E(RwB97XD) =  -824.295363712     A.U. after   11 cycles
 SCF Done:  E(RwB97XD) =  -824.296762232     A.U. after   11 cycles
 SCF Done:  E(RwB97XD) =  -824.297387316     A.U. after   11 cycles
 SCF Done:  E(RwB97XD) =  -824.297581159     A.U. after   11 cycles
 SCF Done:  E(RwB97XD) =  -824.297759280     A.U. after   11 cycles
 SCF Done:  E(RwB97XD) =  -824.298070729     A.U. after   11 cycles
 SCF Done:  E(RwB97XD) =  -824.298304679     A.U. after   11 cycles
 SCF Done:  E(RwB97XD) =  -824.298432467     A.U. after   10 cycles
 SCF Done:  E(RwB97XD) =  -824.298465108     A.U. after   10 cycles
 SCF Done:  E(RwB97XD) =  -824.298495992     A.U. after    9 cycles
 SCF Done:  E(RwB97XD) =  -824.298496932     A.U. after    8 cycles
 SCF Done:  E(RwB97XD) =  -824.298497699     A.U. after    8 cycles
 SCF Done:  E(RwB97XD) =  -824.298498352     A.U. after    8 cycles
 SCF Done:  E(RwB97XD) =  -824.298498884     A.U. after    8 cycles
 SCF Done:  E(RwB97XD) =  -824.298499455     A.U. after    8 cycles
 SCF Done:  E(RwB97XD) =  -824.298499945     A.U. after    8 cycles
 SCF Done:  E(RwB97XD) =  -824.298500156     A.U. after    7 cycles
 SCF Done:  E(RwB97XD) =  -824.298500208     A.U. after    6 cycles
 Optimization completed.
    -- Stationary point found.
 Normal termination of Gaussian 16 at Wed Jan 17 03:43:16 2024.

 ----------------------------------------------------------------------
 #N Geom=AllCheck Guess=TCheck SCRF=Check GenChk RwB97XD/def2TZVPP Freq
 ----------------------------------------------------------------------

 Structure from the checkpoint file:  "QmonoLBiL_EG_20kmmx_confOpt_3.chk"
 -------------------
 Title Card Required
 -------------------
 Charge =  0 Multiplicity = 1

                         Standard orientation:
 ---------------------------------------------------------------------
 Center     Atomic      Atomic             Coordinates (Angstroms)
 Number     Number       Type             X           Y           Z
 ---------------------------------------------------------------------
      1         14           0        0.619386    0.475101   -0.088831
      2          8           0       -0.898485   -0.071822   -0.060392
      3          8           0        0.515530    2.086387   -0.277843
      4          1           0        1.297116    2.607833   -0.113773
      5          8           0        1.565220    0.098540    1.206327
      6          6           0        2.410764   -0.991498    0.862472
      7          1           0        3.346672   -0.908876    1.414291
      8          1           0        1.924271   -1.931524    1.137729
      9          6           0        2.633263   -0.916071   -0.656718
     10          1           0        2.815288   -1.900482   -1.087274
     11          1           0        3.483210   -0.269675   -0.894059
     12          6           0       -2.036734    0.550299    0.517651
     13          1           0       -2.072638    0.305038    1.582077
     14          1           0       -1.983123    1.635680    0.402476
     15          6           0       -3.266853    0.011577   -0.176880
     16          1           0       -3.239988    0.304218   -1.233362
     17          1           0       -4.157178    0.451478    0.274143
     18          8           0        1.452175   -0.366821   -1.224171
     19          8           0       -3.380962   -1.384389   -0.040736
     20          1           0       -2.555503   -1.766104   -0.343244
 ---------------------------------------------------------------------

 SCF Done:  E(RwB97XD) =  -824.298500208     A.U. after    1 cycles

 The electronic state is 1-A.
 Alpha  occ. eigenvalues --  -66.31012 -19.26319 -19.25932 -19.25501 -19.25416
 Alpha  occ. eigenvalues --  -19.24095 -10.34602 -10.34573 -10.33755 -10.32532
 Alpha  occ. eigenvalues --   -5.42869  -3.77440  -3.77345  -3.77271  -1.16487
 Alpha  occ. eigenvalues --   -1.13626  -1.12015  -1.10867  -1.09905  -0.84950
 Alpha  occ. eigenvalues --   -0.83624  -0.72734  -0.71935  -0.66438  -0.61380
 Alpha  occ. eigenvalues --   -0.60521  -0.59866  -0.58888  -0.57514  -0.55595
 Alpha  occ. eigenvalues --   -0.53179  -0.51398  -0.50548  -0.50228  -0.47816
 Alpha  occ. eigenvalues --   -0.44781  -0.43698  -0.43059  -0.42063  -0.40853
 Alpha  occ. eigenvalues --   -0.40307  -0.39032  -0.36825  -0.35476
 Alpha virt. eigenvalues --    0.08790   0.11915   0.12377   0.13956   0.14457
 Alpha virt. eigenvalues --    0.15525   0.16297   0.16751   0.18817   0.18899
 Alpha virt. eigenvalues --    0.19837   0.20646   0.21152   0.22066   0.22617

 Mulliken charges:
               1
     1  Si   0.784888
     2  O   -0.388422
     3  O   -0.374130
     4  H    0.177374
     5  O   -0.397352
     6  C    0.041242
     7  H    0.072623
     8  H    0.072603
     9  C    0.053410
    10  H    0.071076
    11  H    0.064309
    12  C    0.012140
    13  H    0.090906
    14  H    0.074409
    15  C    0.078594
    16  H    0.064111
    17  H    0.062242
    18  O   -0.388892
    19  O   -0.355917
    20  H    0.184785
 Sum of Mulliken charges =  -0.00000

 Dipole moment (field-independent basis, Debye):
    X=              3.0368    Y=              0.9901    Z=              0.4820  Tot=              3.2303
 Quadrupole moment (field-independent basis, Debye-Ang):
   XX=            -61.8861   YY=            -61.0117   ZZ=            -69.0259
   XY=             -6.3401   XZ=              0.0751   YZ=              0.5750

  Exact polarizability:  95.097  -4.901  79.828  -0.698  -0.399  71.541
 Approx polarizability:  88.322  -3.161  86.131  -0.673   0.225  79.640

                      1                      2                      3
                      A                      A                      A
 Frequencies --     11.9148                42.1046                68.8980
 Red. masses --      5.4356                 2.9336                 4.5766
 Frc consts  --      0.0005                 0.0031                 0.0128
 IR Inten    --      0.4608                 2.7053                 0.6677

                      4                      5                      6
                      A                      A                      A
 Frequencies --    111.7683               153.5273               173.8114
 Red. masses --      3.9517                 3.2283                 2.8790
 Frc consts  --      0.0291                 0.0448                 0.0512
 IR Inten    --      5.0211                 9.7934                 4.4455

                      7                      8                      9
                      A                      A                      A
 Frequencies --    214.2667               268.9996               307.9502
 Red. masses --      2.0977                 2.4464                 2.2160
 Frc consts  --      0.0567                 0.1043                 0.1238
 IR Inten    --     15.7954                12.8656                41.3264

                     10                     11                     12
                      A                      A                      A
 Frequencies --    336.6179               342.0614               381.1509
 Red. masses --      4.6417                 2.7930                 2.9275
 Frc consts  --      0.3099                 0.1925                 0.2506
 IR Inten    --      2.4482                34.0027                53.0697

                     13                     14                     15
                      A                      A                      A
 Frequencies --    403.0314               497.0277               547.2436
 Red. masses --      1.4815                 4.7580                 3.9847
 Frc consts  --      0.1418                 0.6925                 0.7031
 IR Inten    --    118.8223                31.5554                 9.4366

                     16                     17                     18
                      A                      A                      A
 Frequencies --    626.9060               725.4960               801.6041
 Red. masses --      2.8732                 4.3997                 2.0039
 Frc consts  --      0.6653                 1.3644                 0.7587
 IR Inten    --      4.7905                 9.2497               171.3010

                     19                     20                     21
                      A                      A                      A
 Frequencies --    837.3714               877.8714               895.6221
 Red. masses --      5.0998                 1.7587                 1.9547
 Frc consts  --      2.1069                 0.7986                 0.9238
 IR Inten    --    131.6331                48.7089                68.9055

                     22                     23                     24
                      A                      A                      A
 Frequencies --    915.6863               931.5939               972.2125
 Red. masses --      2.1354                 2.6680                 7.8062
 Frc consts  --      1.0549                 1.3642                 4.3472
 IR Inten    --      9.5239                21.3006               155.1945

                     25                     26                     27
                      A                      A                      A
 Frequencies --    996.1542              1100.6444              1111.1350
 Red. masses --      2.5713                 2.6541                 6.2868
 Frc consts  --      1.5033                 1.8943                 4.5732
 IR Inten    --     92.2469               206.3632                15.7064

                     28                     29                     30
                      A                      A                      A
 Frequencies --   1123.8759              1137.8081              1156.7357
 Red. masses --      5.8664                 2.5010                 1.8063
 Frc consts  --      4.3658                 1.9077                 1.4240
 IR Inten    --    449.1193                31.0039                40.1029

                     31                     32                     33
                      A                      A                      A
 Frequencies --   1182.0030              1240.7236              1266.7143
 Red. masses --      5.6250                 1.2591                 1.1182
 Frc consts  --      4.6303                 1.1420                 1.0571
 IR Inten    --    269.0155                18.2280                 2.2520

                     34                     35                     36
                      A                      A                      A
 Frequencies --   1269.4950              1298.3189              1390.2411
 Red. masses --      1.1379                 1.1429                 1.2732
 Frc consts  --      1.0805                 1.1350                 1.4498
 IR Inten    --     16.7118                16.6260                 2.8451

                     37                     38                     39
                      A                      A                      A
 Frequencies --   1392.3119              1404.4483              1413.6200
 Red. masses --      1.2071                 1.2864                 1.2145
 Frc consts  --      1.3787                 1.4949                 1.4300
 IR Inten    --      5.8036                 0.4132                21.3347

                     40                     41                     42
                      A                      A                      A
 Frequencies --   1445.5736              1506.5904              1509.4259
 Red. masses --      1.4106                 1.0889                 1.0909
 Frc consts  --      1.7367                 1.4562                 1.4644
 IR Inten    --     30.0567                 4.2594                 3.4075

                     43                     44                     45
                      A                      A                      A
 Frequencies --   1524.4905              1532.0223              3019.4608
 Red. masses --      1.0843                 1.0887                 1.0690
 Frc consts  --      1.4848                 1.5055                 5.7425
 IR Inten    --      3.6264                 0.0944                42.4885

                     46                     47                     48
                      A                      A                      A
 Frequencies --   3041.0316              3045.9203              3046.5554
 Red. masses --      1.0691                 1.0623                 1.0570
 Frc consts  --      5.8250                 5.8066                 5.7803
 IR Inten    --     55.0276                42.1085                27.9532

                     49                     50                     51
                      A                      A                      A
 Frequencies --   3100.7589              3109.6899              3110.4496
 Red. masses --      1.1057                 1.0965                 1.0983
 Frc consts  --      6.2637                 6.2471                 6.2604
 IR Inten    --     27.1547                41.3420                28.5135

                     52                     53                     54
                      A                      A                      A
 Frequencies --   3121.3016              3891.1787              3986.6103
 Red. masses --      1.1055                 1.0657                 1.0665
 Frc consts  --      6.3456                 9.5067                 9.9871
 IR Inten    --     33.8898                38.8992               102.2769

 - Thermochemistry -
 -------------------
 Temperature   298.150 Kelvin.  Pressure   1.00000 Atm.
 Atom     1 has atomic number 14 and mass  27.97693

 Molecular mass:   166.02975 amu.
 Principal axes and moments of inertia in atomic units:
                           1         2         3
     Eigenvalues --   827.868842752.267903035.79756
           X            0.99976  -0.02182   0.00040
           Y            0.02182   0.99976   0.00010
           Z           -0.00040  -0.00009   1.00000
 This molecule is an asymmetric top.
 Rotational symmetry number  1.
 Warning -- assumption of classical behavior for rotation
           may cause significant error
 Rotational temperatures (Kelvin)      0.10462     0.03147     0.02853
 Rotational constants (GHZ):           2.17998     0.65573     0.59449
 Zero-point vibrational energy     418214.6 (Joules/Mol)
                                   99.95570 (Kcal/Mol)
 Warning -- explicit consideration of  15 degrees of freedom as
           vibrations may cause significant error
 Vibrational temperatures:     17.14    60.58    99.13   160.81   220.89
          (Kelvin)            250.08   308.28   387.03   443.07   484.32
                              492.15   548.39   579.87   715.11   787.36
                              901.98  1043.83  1153.33  1204.79  1263.06
                             1288.60  1317.47  1340.36  1398.80  1433.24
                             1583.58  1598.68  1617.01  1637.05  1664.28
                             1700.64  1785.12  1822.52  1826.52  1867.99
                             2000.25  2003.23  2020.69  2033.88  2079.86
                             2167.65  2171.73  2193.40  2204.24  4344.33
                             4375.37  4382.40  4383.31  4461.30  4474.15
                             4475.24  4490.86  5598.54  5735.84

 Zero-point correction=                           0.159290 (Hartree/Particle)
 Thermal correction to Energy=                    0.170769
 Thermal correction to Enthalpy=                  0.171713
 Thermal correction to Gibbs Free Energy=         0.119533
 Sum of electronic and zero-point Energies=           -824.139211
 Sum of electronic and thermal Energies=              -824.127731
 Sum of electronic and thermal Enthalpies=            -824.126787
 Sum of electronic and thermal Free Energies=         -824.178967

                     E (Thermal)             CV                S
                      KCal/Mol        Cal/Mol-Kelvin    Cal/Mol-Kelvin
 Total                  107.159             40.114            109.822
 Electronic               0.000              0.000              0.000
 Translational            0.889              2.981             41.229
 Rotational               0.889              2.981             30.315
 Vibrational            105.382             34.152             38.277
 Vibration     1          0.593              1.987              7.663
 Vibration     2          0.595              1.980              5.158
 Vibration     3          0.598              1.969              4.185
 Vibration     4          0.607              1.940              3.238
 Vibration     5          0.619              1.899              2.628
 Vibration     6          0.627              1.875              2.394
 Vibration     7          0.644              1.819              2.007
 Vibration     8          0.673              1.730              1.603
 Vibration     9          0.698              1.659              1.373
 Vibration    10          0.717              1.602              1.228
 Vibration    11          0.721              1.591              1.203
 Vibration    12          0.751              1.510              1.035
 Vibration    13          0.768              1.464              0.952
 Vibration    14          0.853              1.257              0.666
 Vibration    15          0.902              1.146              0.550

                           ! Non-Optimized Parameters !
 Normal termination of Gaussian 16 at Wed Jan 17 04:03:20 2024.
