 Gaussian 16, Revision C.01,
 Gaussian 16:  ES64L-G16RevC.01  3-Jul-2019

 ---------------------------------------------
 # opt freq wb97xd/Def2TZVPP geom=connectivity
 ---------------------------------------------

 ---------------
 Q(=L)2 conf opt
 ---------------
 Symbolic Z-matrix:
 Charge =  0 Multiplicity = 1

 SCF Done:  E(RwB97XD) =  -747.827751564     A.U. after   13 cycles
 SCF Done:  E(RwB97XD) =  -747.837131502     A.U. after   11 cycles
 SCF Done:  E(RwB97XD) =  -747.838283004     A.U. after   10 cycles
 SCF Done:  E(RwB97XD) =  -747.838805436     A.U. after   11 cycles
 SCF Done:  E(RwB97XD) =  -747.838873642     A.U. after   10 cycles
 SCF Done:  E(RwB97XD) =  -747.838880287     A.U. after    8 cycles
 SCF Done:  E(RwB97XD) =  -747.838882996     A.U. after    7 cycles
 SCF Done:  E(RwB97XD) =  -747.838885073     A.U. after    7 cycles
 Optimization completed.
    -- Stationary point found.
 Normal termination of Gaussian 16 at Mon Jan 22 15:02:24 2024.

 ----------------------------------------------------------------------
 #N Geom=AllCheck Guess=TCheck SCRF=Check GenChk RwB97XD/def2TZVPP Freq
 ----------------------------------------------------------------------

 Structure from the checkpoint file:  "QBiL2_EG_20kmmx_confOpt_1.chk"
 ---------------
 Q(=L)2 conf opt
 ---------------
 Charge =  0 Multiplicity = 1

                         Standard orientation:
 ---------------------------------------------------------------------
 Center     Atomic      Atomic             Coordinates (Angstroms)
 Number     Number       Type             X           Y           Z
 ---------------------------------------------------------------------
      1         14           0       -0.000001   -0.000000    0.000001
      2          8           0        1.073664    0.836460   -0.909363
      3          8           0       -1.073665    0.836464    0.909359
      4          6           0       -2.386634    0.661563    0.392225
      5          1           0       -2.631251    1.503138   -0.261219
      6          1           0       -3.097230    0.641158    1.217865
      7          6           0       -2.386635   -0.661562   -0.392227
      8          1           0       -2.631255   -1.503136    0.261216
      9          1           0       -3.097227   -0.641155   -1.217871
     10          6           0        2.386634    0.661561   -0.392231
     11          1           0        2.631253    1.503138    0.261209
     12          1           0        3.097228    0.641151   -1.217873
     13          6           0        2.386634   -0.661561    0.392229
     14          1           0        2.631251   -1.503137   -0.261213
     15          1           0        3.097232   -0.641151    1.217867
     16          8           0       -1.073663   -0.836468   -0.909358
     17          8           0        1.073667   -0.836458    0.909365
 ---------------------------------------------------------------------

 SCF Done:  E(RwB97XD) =  -747.838885073     A.U. after    1 cycles

 The electronic state is 1-A.
 Alpha  occ. eigenvalues --  -66.30351 -19.25504 -19.25504 -19.25503 -19.25502
 Alpha  occ. eigenvalues --  -10.34397 -10.34397 -10.34377 -10.34376  -5.42317
 Alpha  occ. eigenvalues --   -3.76863  -3.76855  -3.76657  -1.16898  -1.14432
 Alpha  occ. eigenvalues --   -1.09961  -1.09826  -0.85150  -0.83135  -0.72685
 Alpha  occ. eigenvalues --   -0.71781  -0.64239  -0.60416  -0.59459  -0.58940
 Alpha  occ. eigenvalues --   -0.58024  -0.55015  -0.53718  -0.51521  -0.51193
 Alpha  occ. eigenvalues --   -0.50366  -0.43174  -0.43134  -0.41881  -0.41847
 Alpha  occ. eigenvalues --   -0.40911  -0.39732  -0.38359  -0.35765
 Alpha virt. eigenvalues --    0.10193   0.11960   0.12785   0.14104   0.15393
 Alpha virt. eigenvalues --    0.16851   0.16889   0.17246   0.17793   0.19205
 Alpha virt. eigenvalues --    0.20981   0.21534   0.23753   0.25365   0.26126

 Mulliken charges:
               1
     1  Si   0.835160
     2  O   -0.396429
     3  O   -0.396428
     4  C    0.042968
     5  H    0.073583
     6  H    0.071088
     7  C    0.042967
     8  H    0.073583
     9  H    0.071089
    10  C    0.042968
    11  H    0.073582
    12  H    0.071088
    13  C    0.042968
    14  H    0.073582
    15  H    0.071088
    16  O   -0.396429
    17  O   -0.396429
 Sum of Mulliken charges =  -0.00000

 Dipole moment (field-independent basis, Debye):
    X=             -0.0000    Y=              0.0000    Z=             -0.0000  Tot=              0.0000
 Quadrupole moment (field-independent basis, Debye-Ang):
   XX=            -42.4300   YY=            -60.6090   ZZ=            -62.9240
   XY=             -0.0000   XZ=             -0.0000   YZ=             -0.0000

  Exact polarizability:      91.040      -0.000      66.132      -0.000       0.000      63.100
 Approx polarizability:      84.437      -0.000      72.300      -0.000       0.000      72.841

                      1                      2                      3
                      A                      A                      A
 Frequencies --     86.8975               110.8110               141.7326
 Red. masses --      3.5835                 3.7227                 2.4911
 Frc consts  --      0.0159                 0.0269                 0.0295
 IR Inten    --      5.5409                 5.3427                 0.0000

                      4                      5                      6
                      A                      A                      A
 Frequencies --    194.7456               215.8944               339.1079
 Red. masses --      2.0422                 3.8133                 8.9343
 Frc consts  --      0.0456                 0.1047                 0.6053
 IR Inten    --      0.5274                 0.0000                10.1161

                      7                      8                      9
                      A                      A                      A
 Frequencies --    361.3211               363.0471               586.0067
 Red. masses --      9.1044                 7.7828                14.8221
 Frc consts  --      0.7003                 0.6044                 2.9989
 IR Inten    --     20.6361                 0.0000                47.1093

                     10                     11                     12
                      A                      A                      A
 Frequencies --    631.4648               634.0286               753.0697
 Red. masses --      2.9693                 2.8815                10.6205
 Frc consts  --      0.6976                 0.6825                 3.5487
 IR Inten    --      7.2289                 2.3641                 0.0000

                     13                     14                     15
                      A                      A                      A
 Frequencies --    844.8048               859.8027               887.2672
 Red. masses --      5.5328                 3.4073                 1.7065
 Frc consts  --      2.3265                 1.4841                 0.7915
 IR Inten    --    138.9583                96.8663                21.2770

                     16                     17                     18
                      A                      A                      A
 Frequencies --    894.6550               927.9071               934.9951
 Red. masses --      2.1076                 3.0767                 2.6428
 Frc consts  --      0.9939                 1.5608                 1.3613
 IR Inten    --     82.3241                22.6395                 0.0000

                     19                     20                     21
                      A                      A                      A
 Frequencies --    975.0925              1108.5413              1116.6670
 Red. masses --      6.2049                 6.4998                 6.7347
 Frc consts  --      3.4760                 4.7060                 4.9478
 IR Inten    --    115.1665                12.9197                 0.3275

                     22                     23                     24
                      A                      A                      A
 Frequencies --   1122.4698              1132.4710              1157.6279
 Red. masses --      9.9124                 6.1845                 1.7561
 Frc consts  --      7.3583                 4.6731                 1.3865
 IR Inten    --    912.2386                 0.0000                33.5128

                     25                     26                     27
                      A                      A                      A
 Frequencies --   1159.3828              1267.6875              1267.9091
 Red. masses --      1.8547                 1.1172                 1.1192
 Frc consts  --      1.4689                 1.0578                 1.0601
 IR Inten    --      0.0000                 0.6874                 3.3889

                     28                     29                     30
                      A                      A                      A
 Frequencies --   1268.2587              1268.7606              1390.5009
 Red. masses --      1.1385                 1.1351                 1.2733
 Frc consts  --      1.0789                 1.0766                 1.4505
 IR Inten    --      0.0000                38.7580                 2.4787

                     31                     32                     33
                      A                      A                      A
 Frequencies --   1392.0472              1405.3007              1405.3086
 Red. masses --      1.2751                 1.2800                 1.2890
 Frc consts  --      1.4558                 1.4893                 1.4999
 IR Inten    --      2.5688                 0.0000                 0.4490

                     34                     35                     36
                      A                      A                      A
 Frequencies --   1524.2238              1525.1834              1532.5784
 Red. masses --      1.0836                 1.0848                 1.0894
 Frc consts  --      1.4833                 1.4868                 1.5076
 IR Inten    --      6.4510                 0.7454                 0.0123

                     37                     38                     39
                      A                      A                      A
 Frequencies --   1532.5977              3048.4639              3049.7347
 Red. masses --      1.0874                 1.0690                 1.0696
 Frc consts  --      1.5049                 5.8529                 5.8613
 IR Inten    --      0.0000               101.1123                 0.0001

                     40                     41                     42
                      A                      A                      A
 Frequencies --   3051.2924              3051.4377              3112.7439
 Red. masses --      1.0606                 1.0606                 1.0980
 Frc consts  --      5.8180                 5.8185                 6.2680
 IR Inten    --     77.9629                 5.2078                66.2882

                     43                     44                     45
                      A                      A                      A
 Frequencies --   3113.1674              3125.5822              3125.6125
 Red. masses --      1.0974                 1.1064                 1.1065
 Frc consts  --      6.2667                 6.3686                 6.3689
 IR Inten    --      0.0001                 9.0047                56.6480

 - Thermochemistry -
 -------------------
 Temperature   298.150 Kelvin.  Pressure   1.00000 Atm.
 Atom     1 has atomic number 14 and mass  27.97693

 Molecular mass:   148.01919 amu.
 Principal axes and moments of inertia in atomic units:
                           1         2         3
     Eigenvalues --   510.962281715.147721750.83020
           X            1.00000  -0.00000  -0.00000
           Y            0.00000   1.00000  -0.00000
           Z            0.00000   0.00000   1.00000
 This molecule is an asymmetric top.
 Rotational symmetry number  1.
 Warning -- assumption of classical behavior for rotation
           may cause significant error
 Rotational temperatures (Kelvin)      0.16951     0.05050     0.04947
 Rotational constants (GHZ):           3.53204     1.05224     1.03079
 Zero-point vibrational energy     352887.6 (Joules/Mol)
                                   84.34216 (Kcal/Mol)
 Warning -- explicit consideration of   9 degrees of freedom as
           vibrations may cause significant error
 Vibrational temperatures:    125.03   159.43   203.92   280.20   310.62
          (Kelvin)            487.90   519.86   522.34   843.13   908.54
                              912.23  1083.50  1215.49  1237.06  1276.58
                             1287.21  1335.05  1345.25  1402.94  1594.94
                             1606.63  1614.98  1629.37  1665.57  1668.09
                             1823.92  1824.24  1824.74  1825.46  2000.62
                             2002.85  2021.91  2021.93  2193.02  2194.40
                             2205.04  2205.07  4386.06  4387.89  4390.13
                             4390.34  4478.54  4479.15  4497.02  4497.06

 Zero-point correction=                           0.134408 (Hartree/Particle)
 Thermal correction to Energy=                    0.142701
 Thermal correction to Enthalpy=                  0.143645
 Thermal correction to Gibbs Free Energy=         0.100813
 Sum of electronic and zero-point Energies=           -747.704477
 Sum of electronic and thermal Energies=              -747.696184
 Sum of electronic and thermal Enthalpies=            -747.695240
 Sum of electronic and thermal Free Energies=         -747.738072

                     E (Thermal)             CV                S
                      KCal/Mol        Cal/Mol-Kelvin    Cal/Mol-Kelvin
 Total                   89.546             30.213             90.147
 Electronic               0.000              0.000              0.000
 Translational            0.889              2.981             40.887
 Rotational               0.889              2.981             28.819
 Vibrational             87.769             24.252             20.441
 Vibration     1          0.601              1.958              3.729
 Vibration     2          0.607              1.941              3.255
 Vibration     3          0.615              1.912              2.780
 Vibration     4          0.635              1.847              2.182
 Vibration     5          0.645              1.817              1.993
 Vibration     6          0.719              1.597              1.216
 Vibration     7          0.735              1.552              1.116
 Vibration     8          0.737              1.548              1.109
 Vibration     9          0.943              1.062              0.474

 Optimization completed.
    -- Stationary point found.
 Normal termination of Gaussian 16 at Mon Jan 22 15:15:28 2024.
