 Gaussian 16, Revision C.01,
 Gaussian 16:  ES64L-G16RevC.01  3-Jul-2019

 ---------------------------------------------
 # opt freq wb97xd/def2tzvpp geom=connectivity
 ---------------------------------------------

 -----------------------------------------------
 Once deprotonated Q monodentate L1 optimization
 -----------------------------------------------
 Symbolic Z-matrix:
 Charge = -1 Multiplicity = 1

 SCF Done:  E(RwB97XD) =  -746.295540776     A.U. after   15 cycles
 SCF Done:  E(RwB97XD) =  -746.315768539     A.U. after   14 cycles
 SCF Done:  E(RwB97XD) =  -746.320193090     A.U. after   13 cycles
 SCF Done:  E(RwB97XD) =  -746.321787204     A.U. after   12 cycles
 SCF Done:  E(RwB97XD) =  -746.323282814     A.U. after   13 cycles
 SCF Done:  E(RwB97XD) =  -746.325124474     A.U. after   13 cycles
 SCF Done:  E(RwB97XD) =  -746.330139487     A.U. after   15 cycles
 SCF Done:  E(RwB97XD) =  -746.333519204     A.U. after   13 cycles
 SCF Done:  E(RwB97XD) =  -746.339699228     A.U. after   13 cycles
 SCF Done:  E(RwB97XD) =  -746.345651290     A.U. after   13 cycles
 SCF Done:  E(RwB97XD) =  -746.357719660     A.U. after    9 cycles
 SCF Done:  E(RwB97XD) =  -746.357729274     A.U. after   10 cycles
 SCF Done:  E(RwB97XD) =  -746.357735159     A.U. after   10 cycles
 SCF Done:  E(RwB97XD) =  -746.357737112     A.U. after    9 cycles
 SCF Done:  E(RwB97XD) =  -746.357737308     A.U. after    8 cycles
 SCF Done:  E(RwB97XD) =  -746.357737737     A.U. after    8 cycles
 SCF Done:  E(RwB97XD) =  -746.357738122     A.U. after    8 cycles
 SCF Done:  E(RwB97XD) =  -746.357738477     A.U. after    8 cycles
 SCF Done:  E(RwB97XD) =  -746.357738624     A.U. after    8 cycles
 Optimization completed.
    -- Stationary point found.
 Normal termination of Gaussian 16 at Mon Mar 18 17:51:06 2024.

 ----------------------------------------------------------------------
 #N Geom=AllCheck Guess=TCheck SCRF=Check GenChk RwB97XD/def2TZVPP Freq
 ----------------------------------------------------------------------

 Structure from the checkpoint file:  "1QmonoL_opt.chk"
 -----------------------------------------------
 Once deprotonated Q monodentate L1 optimization
 -----------------------------------------------
 Charge = -1 Multiplicity = 1

                         Standard orientation:
 ---------------------------------------------------------------------
 Center     Atomic      Atomic             Coordinates (Angstroms)
 Number     Number       Type             X           Y           Z
 ---------------------------------------------------------------------
      1         14           0        0.971131    0.104443   -0.024108
      2          8           0        1.493162   -0.261616    1.525835
      3          1           0        1.461883    0.537230    2.047284
      4          8           0        0.383585    1.545238   -0.164617
      5          8           0        2.268285   -0.225261   -1.020468
      6          1           0        2.315172    0.451437   -1.691630
      7          8           0       -0.093636   -1.128036   -0.394238
      8          6           0       -1.363757   -1.206516    0.190788
      9          1           0       -1.302161   -1.112538    1.284352
     10          1           0       -1.766425   -2.203372   -0.033072
     11          6           0       -2.356220   -0.167370   -0.329047
     12          1           0       -2.301622   -0.183724   -1.430112
     13          1           0       -3.363882   -0.501162   -0.048176
     14          8           0       -2.186997    1.120126    0.179509
     15          1           0       -1.234133    1.389630    0.030259
 ---------------------------------------------------------------------

 SCF Done:  E(RwB97XD) =  -746.357738624     A.U. after    1 cycles

 The electronic state is 1-A.
 Alpha  occ. eigenvalues --  -66.09739 -19.07325 -19.07137 -19.07068 -19.05915
 Alpha  occ. eigenvalues --  -18.98291 -10.17939 -10.17297  -5.21579  -3.56123
 Alpha  occ. eigenvalues --   -3.56115  -3.55923  -0.96068  -0.94069  -0.92616
 Alpha  occ. eigenvalues --   -0.92028  -0.80290  -0.67258  -0.55653  -0.47535
 Alpha  occ. eigenvalues --   -0.43421  -0.41701  -0.40553  -0.39468  -0.34642
 Alpha  occ. eigenvalues --   -0.33795  -0.32774  -0.29922  -0.27791  -0.26266
 Alpha  occ. eigenvalues --   -0.24535  -0.23608  -0.22091  -0.21323  -0.18474
 Alpha  occ. eigenvalues --   -0.16726  -0.15784
 Alpha virt. eigenvalues --    0.24829   0.26226   0.27971   0.30134   0.31628
 Alpha virt. eigenvalues --    0.32497   0.33930   0.34757   0.36346   0.37218
 Alpha virt. eigenvalues --    0.38102   0.42513   0.43931   0.44028   0.45990

 Mulliken charges:
               1
     1  Si   0.710712
     2  O   -0.458506
     3  H    0.165977
     4  O   -0.733529
     5  O   -0.465615
     6  H    0.161117
     7  O   -0.406519
     8  C    0.079553
     9  H    0.031554
    10  H    0.022328
    11  C    0.081484
    12  H    0.019389
    13  H    0.016635
    14  O   -0.472543
    15  H    0.247962
 Sum of Mulliken charges =  -1.00000

 Dipole moment (field-independent basis, Debye):
    X=             -0.7995    Y=             -1.8691    Z=             -0.0424  Tot=              2.0334
 Quadrupole moment (field-independent basis, Debye-Ang):
   XX=            -71.4336   YY=            -68.0364   ZZ=            -55.5608
   XY=              9.0509   XZ=             -0.1383   YZ=              0.2428

  Exact polarizability:      77.354       3.065      65.112      -0.439      -0.230      63.340
 Approx polarizability:      72.146       1.084      70.454      -1.414       0.616      68.233

                      1                      2                      3
                      A                      A                      A
 Frequencies --     42.6577               100.6174               158.1289
 Red. masses --      6.2735                 2.9043                 1.6612
 Frc consts  --      0.0067                 0.0173                 0.0245
 IR Inten    --      0.3089                 7.8820                31.4884

                      4                      5                      6
                      A                      A                      A
 Frequencies --    185.2763               209.5471               249.7046
 Red. masses --      5.2742                 2.1669                 2.8945
 Frc consts  --      0.1067                 0.0561                 0.1063
 IR Inten    --     17.3206                 6.1593                 4.6660

                      7                      8                      9
                      A                      A                      A
 Frequencies --    266.0988               318.7078               351.4384
 Red. masses --      2.3590                 2.0659                 3.8318
 Frc consts  --      0.0984                 0.1236                 0.2788
 IR Inten    --     12.4558                34.3903                41.8184

                     10                     11                     12
                      A                      A                      A
 Frequencies --    370.9354               405.3694               458.8372
 Red. masses --      4.2158                 5.1809                 8.6042
 Frc consts  --      0.3418                 0.5016                 1.0673
 IR Inten    --     40.1348                31.7388               114.1031

                     13                     14                     15
                      A                      A                      A
 Frequencies --    531.6105               691.3168               798.4238
 Red. masses --      2.4191                 5.4777                 8.4840
 Frc consts  --      0.4028                 1.5424                 3.1865
 IR Inten    --     12.1687                33.9671               223.7305

                     16                     17                     18
                      A                      A                      A
 Frequencies --    840.3070               883.5807               917.6917
 Red. masses --      4.7379                 2.7125                 1.3729
 Frc consts  --      1.9711                 1.2477                 0.6812
 IR Inten    --    337.2773                87.8966                18.0754

                     19                     20                     21
                      A                      A                      A
 Frequencies --    929.4434               945.2826               976.9189
 Red. masses --      1.3674                 2.0261                 1.0721
 Frc consts  --      0.6960                 1.0667                 0.6029
 IR Inten    --     60.6838                37.0151                70.3597

                     22                     23                     24
                      A                      A                      A
 Frequencies --   1112.7406              1118.9171              1163.8705
 Red. masses --      3.8549                 3.5349                 3.7152
 Frc consts  --      2.8122                 2.6075                 2.9651
 IR Inten    --    111.3366               190.8914                77.9527

                     25                     26                     27
                      A                      A                      A
 Frequencies --   1174.8696              1270.8757              1322.2830
 Red. masses --      4.5458                 1.1021                 1.1399
 Frc consts  --      3.6969                 1.0488                 1.1742
 IR Inten    --    207.1786                 1.9176                15.8711

                     28                     29                     30
                      A                      A                      A
 Frequencies --   1397.0264              1407.1506              1490.4552
 Red. masses --      1.2633                 1.3607                 1.0945
 Frc consts  --      1.4527                 1.5874                 1.4326
 IR Inten    --     12.1128                25.0258                 3.6759

                     31                     32                     33
                      A                      A                      A
 Frequencies --   1497.9208              1578.3778              2939.6681
 Red. masses --      1.0861                 1.1180                 1.0638
 Frc consts  --      1.4358                 1.6410                 5.4163
 IR Inten    --      0.9559                51.4913               220.7197

                     34                     35                     36
                      A                      A                      A
 Frequencies --   2973.6643              3005.3892              3014.9990
 Red. masses --      1.0598                 1.0930                 1.1058
 Frc consts  --      5.5217                 5.8164                 5.9223
 IR Inten    --     38.1366               514.6388               136.1970

                     37                     38                     39
                      A                      A                      A
 Frequencies --   3060.7546              3970.7869              3974.6835
 Red. masses --      1.0756                 1.0653                 1.0654
 Frc consts  --      5.9366                 9.8968                 9.9166
 IR Inten    --    804.9168                42.3668                41.9433

 - Thermochemistry -
 -------------------
 Temperature   298.150 Kelvin.  Pressure   1.00000 Atm.
 Atom     1 has atomic number 14 and mass  27.97693

 Molecular mass:   139.00628 amu.
 Principal axes and moments of inertia in atomic units:
                           1         2         3
     Eigenvalues --   632.626201474.301711607.66416
           X            0.99948   0.03217   0.00267
           Y           -0.03212   0.99933  -0.01772
           Z           -0.00324   0.01763   0.99984
 This molecule is an asymmetric top.
 Rotational symmetry number  1.
 Warning -- assumption of classical behavior for rotation
           may cause significant error
 Rotational temperatures (Kelvin)      0.13691     0.05875     0.05388
 Rotational constants (GHZ):           2.85278     1.22413     1.12259
 Zero-point vibrational energy     287739.7 (Joules/Mol)
                                   68.77145 (Kcal/Mol)
 Warning -- explicit consideration of  13 degrees of freedom as
           vibrations may cause significant error
 Vibrational temperatures:     61.37   144.77   227.51   266.57   301.49
          (Kelvin)            359.27   382.86   458.55   505.64   533.69
                              583.24   660.16   764.87   994.65  1148.75
                             1209.01  1271.28  1320.35  1337.26  1360.05
                             1405.57  1600.99  1609.87  1674.55  1690.38
                             1828.51  1902.47  2010.01  2024.58  2144.43
                             2155.17  2270.93  4229.53  4278.44  4324.08
                             4337.91  4403.74  5713.08  5718.68

 Zero-point correction=                           0.109594 (Hartree/Particle)
 Thermal correction to Energy=                    0.119220
 Thermal correction to Enthalpy=                  0.120164
 Thermal correction to Gibbs Free Energy=         0.074634
 Sum of electronic and zero-point Energies=           -746.248144
 Sum of electronic and thermal Energies=              -746.238519
 Sum of electronic and thermal Enthalpies=            -746.237575
 Sum of electronic and thermal Free Energies=         -746.283105

                     E (Thermal)             CV                S
                      KCal/Mol        Cal/Mol-Kelvin    Cal/Mol-Kelvin
 Total                   74.811             33.787             95.826
 Electronic               0.000              0.000              0.000
 Translational            0.889              2.981             40.700
 Rotational               0.889              2.981             28.796
 Vibrational             73.034             27.826             26.330
 Vibration     1          0.595              1.980              5.132
 Vibration     2          0.604              1.949              3.442
 Vibration     3          0.621              1.894              2.572
 Vibration     4          0.631              1.860              2.275
 Vibration     5          0.642              1.826              2.048
 Vibration     6          0.662              1.763              1.733
 Vibration     7          0.672              1.735              1.621
 Vibration     8          0.705              1.638              1.317
 Vibration     9          0.728              1.572              1.160
 Vibration    10          0.743              1.532              1.076
 Vibration    11          0.770              1.459              0.943
 Vibration    12          0.817              1.341              0.769
 Vibration    13          0.887              1.180              0.584

                           ! Non-Optimized Parameters !
 Normal termination of Gaussian 16 at Mon Mar 18 18:17:57 2024.
