 Gaussian 16, Revision C.01,
 Gaussian 16:  ES64L-G16RevC.01  3-Jul-2019

 ---------------------------------------------
 # opt freq wb97xd/def2tzvpp geom=connectivity
 ---------------------------------------------

 irc for proton transfer with potential SN1 like transition state in L
 attack on QbiL
 ----------------------------------------------------------------------
 Symbolic Z-matrix:
 Charge =  0 Multiplicity = 1

 SCF Done:  E(RwB97XD) =  -824.238535066     A.U. after   14 cycles
 SCF Done:  E(RwB97XD) =  -824.237873741     A.U. after   11 cycles
 SCF Done:  E(RwB97XD) =  -824.237268281     A.U. after   12 cycles
 SCF Done:  E(RwB97XD) =  -824.237130604     A.U. after   11 cycles
 SCF Done:  E(RwB97XD) =  -824.238762996     A.U. after    9 cycles
 SCF Done:  E(RwB97XD) =  -824.238727441     A.U. after   11 cycles
 SCF Done:  E(RwB97XD) =  -824.239099832     A.U. after   11 cycles
 SCF Done:  E(RwB97XD) =  -824.239259353     A.U. after   10 cycles
 SCF Done:  E(RwB97XD) =  -824.239330875     A.U. after   10 cycles
 SCF Done:  E(RwB97XD) =  -824.239344301     A.U. after    8 cycles
 SCF Done:  E(RwB97XD) =  -824.239347499     A.U. after    8 cycles
 SCF Done:  E(RwB97XD) =  -824.239347952     A.U. after    7 cycles
 Optimization completed.
    -- Stationary point found.
 Normal termination of Gaussian 16 at Wed Apr 10 04:59:55 2024.

 ----------------------------------------------------------------------
 #N Geom=AllCheck Guess=TCheck SCRF=Check GenChk RwB97XD/def2TZVPP Freq
 ----------------------------------------------------------------------

 ----------------------------------------------------------------------
 irc for proton transfer with potential SN1 like transition state in L
 attack on QbiL
 ----------------------------------------------------------------------
 Charge =  0 Multiplicity = 1

                         Standard orientation:
 ---------------------------------------------------------------------
 Center     Atomic      Atomic             Coordinates (Angstroms)
 Number     Number       Type             X           Y           Z
 ---------------------------------------------------------------------
      1         14           0       -0.420117    0.624193   -0.136453
      2          8           0       -1.744038    0.874486    0.795784
      3          8           0        0.570240    1.699538   -0.579110
      4          8           0       -1.014696   -0.605452   -1.055571
      5          6           0        1.561760   -1.389265    0.427786
      6          1           0        0.938205   -2.097603   -0.108850
      7          1           0        2.061326   -1.878499    1.261678
      8          6           0        2.546740   -0.644114   -0.476190
      9          1           0        2.095374   -0.472579   -1.456278
     10          1           0        3.435283   -1.262606   -0.612009
     11          8           0        0.657469   -0.412077    1.030403
     12          1           0        1.266785    0.253713    1.398014
     13          8           0        2.909559    0.569761    0.126577
     14          1           0        2.250791    1.227779   -0.189988
     15          6           0       -2.386734   -0.824422   -0.743457
     16          1           0       -2.596478   -1.893731   -0.762278
     17          1           0       -3.003106   -0.332947   -1.499533
     18          6           0       -2.637486   -0.220750    0.649280
     19          1           0       -3.661254    0.135490    0.756095
     20          1           0       -2.439247   -0.956455    1.434308
 ---------------------------------------------------------------------

 SCF Done:  E(RwB97XD) =  -824.239347952     A.U. after    1 cycles

 The electronic state is 1-A.
 Alpha  occ. eigenvalues --  -66.29483 -19.35457 -19.26301 -19.26074 -19.24928
 Alpha  occ. eigenvalues --  -19.17412 -10.37548 -10.35107 -10.35030 -10.34708
 Alpha  occ. eigenvalues --   -5.41538  -3.76284  -3.76050  -3.75640  -1.22685
 Alpha  occ. eigenvalues --   -1.16201  -1.12898  -1.10552  -0.99817  -0.87530
 Alpha  occ. eigenvalues --   -0.84751  -0.75318  -0.72927  -0.68895  -0.63083
 Alpha  occ. eigenvalues --   -0.62706  -0.61223  -0.59609  -0.58898  -0.57082
 Alpha  occ. eigenvalues --   -0.52989  -0.52575  -0.51988  -0.50948  -0.47816
 Alpha  occ. eigenvalues --   -0.44520  -0.43826  -0.42425  -0.41660  -0.40706
 Alpha  occ. eigenvalues --   -0.38279  -0.37972  -0.36235  -0.35347
 Alpha virt. eigenvalues --    0.07585   0.10892   0.11793   0.12179   0.14281
 Alpha virt. eigenvalues --    0.15486   0.15931   0.16623   0.16949   0.17662
 Alpha virt. eigenvalues --    0.19004   0.20361   0.20859   0.21455   0.21537

 Mulliken charges:
               1
     1  Si   0.760983
     2  O   -0.388035
     3  O   -0.653740
     4  O   -0.408934
     5  C   -0.019251
     6  H    0.105523
     7  H    0.117485
     8  C    0.036475
     9  H    0.100917
    10  H    0.081183
    11  O   -0.139865
    12  H    0.204116
    13  O   -0.416594
    14  H    0.244633
    15  C    0.044686
    16  H    0.065987
    17  H    0.077773
    18  C    0.033971
    19  H    0.082150
    20  H    0.070537
 Sum of Mulliken charges =  -0.00000

 Dipole moment (field-independent basis, Debye):
    X=             -1.5142    Y=             -5.5838    Z=              1.5660  Tot=              5.9936
 Quadrupole moment (field-independent basis, Debye-Ang):
   XX=            -60.4480   YY=            -69.1050   ZZ=            -65.4357
   XY=             -4.0458   XZ=              2.0455   YZ=              0.6181

  Exact polarizability:      97.229       1.631      79.263      -0.958      -0.440      72.572
 Approx polarizability:      92.659       2.684      88.959      -0.681       0.596      82.535

                      1                      2                      3
                      A                      A                      A
 Frequencies --     44.2579                88.5412               134.8789
 Red. masses --      5.0687                 3.7761                 2.7130
 Frc consts  --      0.0058                 0.0174                 0.0291
 IR Inten    --      1.1148                 1.8011                 1.1608

                      4                      5                      6
                      A                      A                      A
 Frequencies --    183.1389               188.7618               213.0726
 Red. masses --      3.8147                 2.6758                 3.7559
 Frc consts  --      0.0754                 0.0562                 0.1005
 IR Inten    --      1.3225                14.6348                 3.8506

                      7                      8                      9
                      A                      A                      A
 Frequencies --    244.5693               284.6096               320.5130
 Red. masses --      4.2010                 5.8713                 3.8975
 Frc consts  --      0.1480                 0.2802                 0.2359
 IR Inten    --      4.1016                14.1637                36.1496

                     10                     11                     12
                      A                      A                      A
 Frequencies --    331.3266               409.7126               459.4348
 Red. masses --      6.5629                 5.6464                 9.8811
 Frc consts  --      0.4245                 0.5584                 1.2289
 IR Inten    --      3.5259                10.3205               123.4162

                     13                     14                     15
                      A                      A                      A
 Frequencies --    512.4151               572.8545               629.2961
 Red. masses --     10.5446                 2.6831                 2.9506
 Frc consts  --      1.6313                 0.5188                 0.6885
 IR Inten    --    150.3831                 2.7344                 3.1647

                     16                     17                     18
                      A                      A                      A
 Frequencies --    745.9642               788.0509               845.5474
 Red. masses --      1.2927                 9.4850                 4.3337
 Frc consts  --      0.4238                 3.4706                 1.8255
 IR Inten    --    223.6122                36.6629               102.2583

                     19                     20                     21
                      A                      A                      A
 Frequencies --    862.7766               887.7922               892.0370
 Red. masses --      1.8947                 1.8696                 1.9279
 Frc consts  --      0.8310                 0.8682                 0.9039
 IR Inten    --     45.4833                29.4803                36.9056

                     22                     23                     24
                      A                      A                      A
 Frequencies --    931.7745               964.1041              1032.9563
 Red. masses --      2.6497                 1.3718                 3.0979
 Frc consts  --      1.3554                 0.7513                 1.9475
 IR Inten    --     30.3024                23.2377               114.2780

                     25                     26                     27
                      A                      A                      A
 Frequencies --   1098.4529              1107.1757              1116.1152
 Red. masses --      2.0661                 5.8939                 7.1334
 Frc consts  --      1.4688                 4.2569                 5.2356
 IR Inten    --     89.7378                41.6008               120.0916

                     28                     29                     30
                      A                      A                      A
 Frequencies --   1137.5238              1157.1040              1232.2154
 Red. masses --      2.8033                 1.7866                 1.6938
 Frc consts  --      2.1372                 1.4094                 1.5153
 IR Inten    --     23.9657                14.2857               203.0270

                     31                     32                     33
                      A                      A                      A
 Frequencies --   1254.6091              1266.9117              1269.8799
 Red. masses --      1.9964                 1.1246                 1.2043
 Frc consts  --      1.8514                 1.0636                 1.1443
 IR Inten    --    155.5427                 6.0851                63.9080

                     34                     35                     36
                      A                      A                      A
 Frequencies --   1277.6560              1388.0350              1389.6519
 Red. masses --      1.2449                 1.2408                 1.2708
 Frc consts  --      1.1973                 1.4085                 1.4459
 IR Inten    --     18.0303                 4.9822                 2.4352

                     37                     38                     39
                      A                      A                      A
 Frequencies --   1404.3972              1415.6437              1440.1395
 Red. masses --      1.2885                 1.2232                 1.2063
 Frc consts  --      1.4973                 1.4443                 1.4741
 IR Inten    --      0.1229                 7.5557                51.7913

                     40                     41                     42
                      A                      A                      A
 Frequencies --   1496.9221              1507.1616              1511.8039
 Red. masses --      1.1478                 1.0991                 1.0891
 Frc consts  --      1.5153                 1.4710                 1.4666
 IR Inten    --     27.1161                18.1729                16.4583

                     43                     44                     45
                      A                      A                      A
 Frequencies --   1523.5356              1531.7808              3043.9027
 Red. masses --      1.0842                 1.0888                 1.0674
 Frc consts  --      1.4828                 1.5051                 5.8267
 IR Inten    --      4.0697                 0.3656                41.6446

                     46                     47                     48
                      A                      A                      A
 Frequencies --   3058.6939              3059.3756              3103.4432
 Red. masses --      1.0596                 1.0613                 1.0802
 Frc consts  --      5.8405                 5.8529                 6.1297
 IR Inten    --     26.1283                49.0712                 3.4247

                     49                     50                     51
                      A                      A                      A
 Frequencies --   3113.1150              3117.3175              3126.7269
 Red. masses --      1.0996                 1.0881                 1.1058
 Frc consts  --      6.2787                 6.2301                 6.3695
 IR Inten    --     30.4516                42.4930                32.8024

                     52                     53                     54
                      A                      A                      A
 Frequencies --   3188.9507              3432.6939              3652.1279
 Red. masses --      1.1085                 1.0681                 1.0636
 Frc consts  --      6.6416                 7.4152                 8.3580
 IR Inten    --      3.9530               545.9907               156.0249

 - Thermochemistry -
 -------------------
 Temperature   298.150 Kelvin.  Pressure   1.00000 Atm.
 Atom     1 has atomic number 14 and mass  27.97693

 Molecular mass:   166.02975 amu.
 Principal axes and moments of inertia in atomic units:
                           1         2         3
     Eigenvalues --   768.007632212.038282413.54040
           X            1.00000  -0.00084  -0.00235
           Y            0.00084   1.00000   0.00182
           Z            0.00235  -0.00182   1.00000
 This molecule is an asymmetric top.
 Rotational symmetry number  1.
 Warning -- assumption of classical behavior for rotation
           may cause significant error
 Rotational temperatures (Kelvin)      0.11278     0.03916     0.03589
 Rotational constants (GHZ):           2.34990     0.81587     0.74776
 Zero-point vibrational energy     424623.2 (Joules/Mol)
                                  101.48737 (Kcal/Mol)
 Warning -- explicit consideration of  14 degrees of freedom as
           vibrations may cause significant error
 Vibrational temperatures:     63.68   127.39   194.06   263.50   271.59
          (Kelvin)            306.56   351.88   409.49   461.15   476.71
                              589.49   661.02   737.25   824.21   905.42
                             1073.28  1133.83  1216.55  1241.34  1277.33
                             1283.44  1340.62  1387.13  1486.19  1580.43
                             1592.98  1605.84  1636.64  1664.81  1772.88
                             1805.10  1822.80  1827.07  1838.26  1997.07
                             1999.40  2020.61  2036.80  2072.04  2153.74
                             2168.47  2175.15  2192.03  2203.89  4379.50
                             4400.78  4401.76  4465.16  4479.08  4485.12
                             4498.66  4588.19  4938.88  5254.60

 Zero-point correction=                           0.161730 (Hartree/Particle)
 Thermal correction to Energy=                    0.172126
 Thermal correction to Enthalpy=                  0.173070
 Thermal correction to Gibbs Free Energy=         0.125431
 Sum of electronic and zero-point Energies=           -824.077618
 Sum of electronic and thermal Energies=              -824.067222
 Sum of electronic and thermal Enthalpies=            -824.066278
 Sum of electronic and thermal Free Energies=         -824.113917

                     E (Thermal)             CV                S
                      KCal/Mol        Cal/Mol-Kelvin    Cal/Mol-Kelvin
 Total                  108.011             37.966            100.265
 Electronic               0.000              0.000              0.000
 Translational            0.889              2.981             41.229
 Rotational               0.889              2.981             29.796
 Vibrational            106.233             32.005             29.240
 Vibration     1          0.595              1.980              5.059
 Vibration     2          0.601              1.957              3.692
 Vibration     3          0.613              1.919              2.875
 Vibration     4          0.631              1.863              2.296
 Vibration     5          0.633              1.855              2.240
 Vibration     6          0.644              1.821              2.017
 Vibration     7          0.660              1.772              1.769
 Vibration     8          0.683              1.702              1.506
 Vibration     9          0.706              1.634              1.307
 Vibration    10          0.714              1.613              1.254
 Vibration    11          0.774              1.449              0.928
 Vibration    12          0.817              1.340              0.768
 Vibration    13          0.868              1.222              0.628
 Vibration    14          0.929              1.090              0.499

                           ! Non-Optimized Parameters !
 Normal termination of Gaussian 16 at Wed Apr 10 06:02:22 2024.
