 Gaussian 16, Revision C.01,
 Gaussian 16:  ES64L-G16RevC.01  3-Jul-2019

 ---------------------------------------------
 # opt freq wb97xd/def2tzvpp geom=connectivity
 ---------------------------------------------

 ---------
 Hydroxide
 ---------
 Symbolic Z-matrix:
 Charge = -1 Multiplicity = 1

 SCF Done:  E(RwB97XD) =  -75.7840968251     A.U. after   13 cycles
 SCF Done:  E(RwB97XD) =  -75.7841013660     A.U. after    8 cycles
 Optimization completed.
    -- Stationary point found.
 Normal termination of Gaussian 16 at Sat Mar 16 00:01:38 2024.

 ----------------------------------------------------------------------
 #N Geom=AllCheck Guess=TCheck SCRF=Check GenChk RwB97XD/def2TZVPP Freq
 ----------------------------------------------------------------------

 Structure from the checkpoint file:  "HydroxideOpt.chk"
 ---------
 Hydroxide
 ---------
 Charge = -1 Multiplicity = 1

                         Standard orientation:
 ---------------------------------------------------------------------
 Center     Atomic      Atomic             Coordinates (Angstroms)
 Number     Number       Type             X           Y           Z
 ---------------------------------------------------------------------
      1          8           0        0.000000    0.000000    0.106897
      2          1           0        0.000000    0.000000   -0.855175
 ---------------------------------------------------------------------

 SCF Done:  E(RwB97XD) =  -75.7841013660     A.U. after    1 cycles

 The electronic state is 1-SG.
 Alpha  occ. eigenvalues --  -18.82341  -0.64455  -0.13502   0.00565   0.00565
 Alpha virt. eigenvalues --    0.37263   0.78574   0.81718   0.83623   0.83623
 Alpha virt. eigenvalues --    0.92658   1.11828   1.11828   1.58642   1.95595
 Alpha virt. eigenvalues --    1.95595   2.19362   2.25038   2.25038   2.69710

 Mulliken charges:
               1
     1  O   -1.064832
     2  H    0.064832
 Sum of Mulliken charges =  -1.00000

 Dipole moment (field-independent basis, Debye):
    X=              0.0000    Y=              0.0000    Z=             -1.4670  Tot=              1.4670
 Quadrupole moment (field-independent basis, Debye-Ang):
   XX=             -8.9443   YY=             -8.9443   ZZ=             -7.3222
   XY=              0.0000   XZ=              0.0000   YZ=              0.0000

  Exact polarizability:       7.549      -0.000       7.549      -0.000      -0.000      12.274
 Approx polarizability:       6.080      -0.000       6.080      -0.000      -0.000      11.708

                      1
                     SG
 Frequencies --   3777.3041
 Red. masses --      1.0671
 Frc consts  --      8.9705
 IR Inten    --    174.9716

 - Thermochemistry -
 -------------------
 Temperature   298.150 Kelvin.  Pressure   1.00000 Atm.
 Atom     1 has atomic number  8 and mass  15.99491

 Molecular mass:    17.00274 amu.
 Principal axes and moments of inertia in atomic units:
                           1         2         3
     Eigenvalues --     0.00000   3.13373   3.13373
           X            0.00000  -0.00000   1.00000
           Y            0.00000   1.00000   0.00000
           Z            1.00000   0.00000   0.00000
 This molecule is a prolate symmetric top.
 Rotational symmetry number  1.
 Rotational temperature (Kelvin)     27.63926
 Rotational constant (GHZ):         575.908764
 Zero-point vibrational energy      22593.3 (Joules/Mol)
                                    5.39993 (Kcal/Mol)
 Vibrational temperatures:   5434.70
          (Kelvin)

 Zero-point correction=                           0.008605 (Hartree/Particle)
 Thermal correction to Energy=                    0.010966
 Thermal correction to Enthalpy=                  0.011910
 Thermal correction to Gibbs Free Energy=        -0.007642
 Sum of electronic and zero-point Energies=            -75.775496
 Sum of electronic and thermal Energies=               -75.773136
 Sum of electronic and thermal Enthalpies=             -75.772191
 Sum of electronic and thermal Free Energies=          -75.791743

                     E (Thermal)             CV                S
                      KCal/Mol        Cal/Mol-Kelvin    Cal/Mol-Kelvin
 Total                    6.881              4.968             41.150
 Electronic               0.000              0.000              0.000
 Translational            0.889              2.981             34.437
 Rotational               0.592              1.987              6.713
 Vibrational              5.400              0.000              0.000

 Optimization completed.
    -- Stationary point found.
 Normal termination of Gaussian 16 at Sat Mar 16 00:01:43 2024.
