 Gaussian 16, Revision C.01,
 Gaussian 16:  ES64L-G16RevC.01  3-Jul-2019

 ------------------------------------------------------------------
 # opt=(calcall,ts,noeigen) freq wb97xd/def2tzvpp geom=connectivity
 ------------------------------------------------------------------

 TS Opt on modredundant with bond lengths 2 point 1 A and correct imag
 freq
 ----------------------------------------------------------------------
 Symbolic Z-matrix:
 Charge =  0 Multiplicity = 1

 SCF Done:  E(RwB97XD) =  -823.320625857     A.U. after   13 cycles
 SCF Done:  E(RwB97XD) =  -823.318767956     A.U. after   12 cycles
 SCF Done:  E(RwB97XD) =  -823.309707832     A.U. after   12 cycles
 SCF Done:  E(RwB97XD) =  -823.297748581     A.U. after   13 cycles
 SCF Done:  E(RwB97XD) =  -823.289069744     A.U. after   13 cycles
 SCF Done:  E(RwB97XD) =  -823.285730557     A.U. after   13 cycles
 SCF Done:  E(RwB97XD) =  -823.289174585     A.U. after   12 cycles
 SCF Done:  E(RwB97XD) =  -823.294062089     A.U. after   12 cycles
 SCF Done:  E(RwB97XD) =  -823.298558625     A.U. after   12 cycles
 SCF Done:  E(RwB97XD) =  -823.301989489     A.U. after   12 cycles
 SCF Done:  E(RwB97XD) =  -823.303832742     A.U. after   11 cycles
 SCF Done:  E(RwB97XD) =  -823.304373254     A.U. after   12 cycles
 SCF Done:  E(RwB97XD) =  -823.304662944     A.U. after   12 cycles
 SCF Done:  E(RwB97XD) =  -823.304698756     A.U. after   11 cycles
 SCF Done:  E(RwB97XD) =  -823.304699044     A.U. after    7 cycles
 Optimization completed.
    -- Stationary point found.
 ******    1 imaginary frequencies (negative Signs) ******
    1 imaginary frequencies ignored.
 Normal termination of Gaussian 16 at Wed Nov  1 15:28:52 2023.

 ----------------------------------------------------------------------
 #N Geom=AllCheck Guess=TCheck SCRF=Check GenChk RwB97XD/def2TZVPP Freq
 ----------------------------------------------------------------------

 ----------------------------------------------------------------------
 TS Opt on modredundant with bond lengths 2 point 1 A and correct imag
 freq
 ----------------------------------------------------------------------
 Charge =  0 Multiplicity = 1

                         Standard orientation:
 ---------------------------------------------------------------------
 Center     Atomic      Atomic             Coordinates (Angstroms)
 Number     Number       Type             X           Y           Z
 ---------------------------------------------------------------------
      1         14           0        0.917312   -0.087482   -0.027426
      2          8           0        1.797599   -0.949323   -1.112718
      3          1           0        1.425678   -1.775489   -1.409661
      4          8           0        2.431256    0.988703    0.503848
      5          1           0        3.178968    0.903042   -0.090057
      6          8           0        0.356308    1.364616   -0.374728
      7          1           0        1.635873    1.642521    0.072838
      8          8           0        0.692686   -0.831177    1.418324
      9          1           0        1.329823   -0.593895    2.087809
     10          6           0       -1.934130   -1.060268    0.198369
     11          1           0       -1.643058   -1.657457    1.056378
     12          1           0       -2.700803   -1.577445   -0.378341
     13          6           0       -2.382792    0.345885    0.585135
     14          1           0       -1.750796    0.724423    1.391848
     15          1           0       -3.411134    0.300392    0.948293
     16          8           0       -0.769810   -0.970448   -0.660735
     17          1           0       -1.039899   -0.353757   -1.358835
     18          8           0       -2.326897    1.191504   -0.534701
     19          1           0       -1.414628    1.547705   -0.551653
 ---------------------------------------------------------------------

 SCF Done:  E(RwB97XD) =  -823.304699044     A.U. after    1 cycles

 The electronic state is 1-A.
 Alpha  occ. eigenvalues --  -66.31289 -19.32400 -19.27456 -19.25033 -19.24896
 Alpha  occ. eigenvalues --  -19.23617 -19.17989 -10.35362 -10.33204  -5.42734
 Alpha  occ. eigenvalues --   -3.77577  -3.77165  -3.76950  -1.19889  -1.14931
 Alpha  occ. eigenvalues --   -1.11668  -1.10975  -1.10100  -1.00835  -0.85641
 Alpha  occ. eigenvalues --   -0.73589  -0.67832  -0.65969  -0.63998  -0.61218
 Alpha  occ. eigenvalues --   -0.60534  -0.58905  -0.55419  -0.53974  -0.50591
 Alpha  occ. eigenvalues --   -0.50207  -0.48422  -0.47084  -0.45876  -0.44744
 Alpha  occ. eigenvalues --   -0.44307  -0.42010  -0.41476  -0.40438  -0.37024
 Alpha  occ. eigenvalues --   -0.36154  -0.34961
 Alpha virt. eigenvalues --    0.08360   0.11966   0.13080   0.14149   0.14416
 Alpha virt. eigenvalues --    0.16190   0.17794   0.18419   0.19893   0.21090
 Alpha virt. eigenvalues --    0.22116   0.24342   0.24557   0.25456   0.26596

 Mulliken charges:
               1
     1  Si   0.797151
     2  O   -0.402739
     3  H    0.177809
     4  O   -0.364745
     5  H    0.190548
     6  O   -0.661143
     7  H    0.283160
     8  O   -0.387231
     9  H    0.175636
    10  C   -0.010195
    11  H    0.099929
    12  H    0.109943
    13  C    0.048911
    14  H    0.088576
    15  H    0.078784
    16  O   -0.243471
    17  H    0.203819
    18  O   -0.421006
    19  H    0.236264
 Sum of Mulliken charges =  -0.00000

 Dipole moment (field-independent basis, Debye):
    X=              0.5383    Y=             -2.9873    Z=              0.7496  Tot=              3.1266
 Quadrupole moment (field-independent basis, Debye-Ang):
   XX=            -55.2307   YY=            -62.1087   ZZ=            -57.3814
   XY=              6.4793   XZ=             -1.6645   YZ=              2.9632

  Exact polarizability:      84.265       2.127      67.972      -0.813      -0.022      64.896
 Approx polarizability:      81.100       1.286      73.689       0.323      -1.171      73.211

 ******    1 imaginary frequencies (negative Signs) ******

                      1                      2                      3
                      A                      A                      A
 Frequencies --   -993.2378                59.7822               123.2852
 Red. masses --      1.2122                 6.0891                 4.1355
 Frc consts  --      0.7046                 0.0128                 0.0370
 IR Inten    --   1361.9291                 0.6584                 7.1612

                      4                      5                      6
                      A                      A                      A
 Frequencies --    167.9811               196.0188               206.5782
 Red. masses --      4.2904                 4.7801                 3.1946
 Frc consts  --      0.0713                 0.1082                 0.0803
 IR Inten    --     10.9251                 5.9812                20.5004

                      7                      8                      9
                      A                      A                      A
 Frequencies --    224.9000               262.6792               273.4730
 Red. masses --      2.6503                 1.9869                 4.5890
 Frc consts  --      0.0790                 0.0808                 0.2022
 IR Inten    --      4.1645                35.2877                30.0319

                     10                     11                     12
                      A                      A                      A
 Frequencies --    279.5630               309.5427               332.7895
 Red. masses --      3.5069                 1.3905                 2.5881
 Frc consts  --      0.1615                 0.0785                 0.1689
 IR Inten    --     34.4381                22.3414                62.7660

                     13                     14                     15
                      A                      A                      A
 Frequencies --    357.0672               369.5891               388.8106
 Red. masses --      2.7469                 6.7315                 3.9199
 Frc consts  --      0.2063                 0.5418                 0.3491
 IR Inten    --      5.4013                21.7009                78.5273

                     16                     17                     18
                      A                      A                      A
 Frequencies --    460.9218               567.7599               593.1602
 Red. masses --      5.5730                 2.4133                 1.1350
 Frc consts  --      0.6976                 0.4584                 0.2353
 IR Inten    --    655.0591                 6.1814                92.4695

                     19                     20                     21
                      A                      A                      A
 Frequencies --    711.5960               718.0145               755.4053
 Red. masses --      1.3444                 3.4319                 1.5802
 Frc consts  --      0.4011                 1.0424                 0.5313
 IR Inten    --    202.1024               106.0347                70.6662

                     22                     23                     24
                      A                      A                      A
 Frequencies --    821.3903               868.6106               878.5197
 Red. masses --      3.8398                 1.6251                 1.2806
 Frc consts  --      1.5264                 0.7224                 0.5823
 IR Inten    --    118.5486               102.0826                42.4642

                     25                     26                     27
                      A                      A                      A
 Frequencies --    894.9425               913.0146               948.3671
 Red. masses --      2.0239                 1.7282                 1.4450
 Frc consts  --      0.9551                 0.8488                 0.7657
 IR Inten    --     46.3560               481.7159                14.3382

                     28                     29                     30
                      A                      A                      A
 Frequencies --    969.7891              1055.0368              1096.4472
 Red. masses --      2.8242                 3.8084                 2.3968
 Frc consts  --      1.5650                 2.4976                 1.6977
 IR Inten    --    130.7307                81.8933               248.1697

                     31                     32                     33
                      A                      A                      A
 Frequencies --   1108.9486              1139.7750              1244.8612
 Red. masses --      3.5938                 2.7711                 1.1323
 Frc consts  --      2.6039                 2.1210                 1.0338
 IR Inten    --    131.1864                76.3070                18.3314

                     34                     35                     36
                      A                      A                      A
 Frequencies --   1275.5601              1391.1221              1414.5748
 Red. masses --      1.1667                 1.2357                 1.2274
 Frc consts  --      1.1184                 1.4090                 1.4471
 IR Inten    --      6.0498                 5.2901                 8.7666

                     37                     38                     39
                      A                      A                      A
 Frequencies --   1437.4774              1442.2481              1497.5691
 Red. masses --      1.1179                 1.1736                 1.1399
 Frc consts  --      1.3610                 1.4383                 1.5062
 IR Inten    --    102.5644                11.4688                19.6836

                     40                     41                     42
                      A                      A                      A
 Frequencies --   1504.5643              1512.1564              2076.0798
 Red. masses --      1.1116                 1.0837                 1.0518
 Frc consts  --      1.4826                 1.4600                 2.6709
 IR Inten    --     23.0181                 7.7684               236.7718

                     43                     44                     45
                      A                      A                      A
 Frequencies --   3056.8949              3089.4296              3111.7353
 Red. masses --      1.0586                 1.0729                 1.1001
 Frc consts  --      5.8286                 6.0337                 6.2758
 IR Inten    --     35.1437                11.0443                51.0409

                     46                     47                     48
                      A                      A                      A
 Frequencies --   3188.0411              3492.2873              3720.6897
 Red. masses --      1.1030                 1.0682                 1.0643
 Frc consts  --      6.6049                 7.6756                 8.6807
 IR Inten    --      5.1331               563.1438               104.4167

                     49                     50                     51
                      A                      A                      A
 Frequencies --   3909.7292              3980.7730              3987.6979
 Red. masses --      1.0655                 1.0661                 1.0664
 Frc consts  --      9.5965                 9.9537                 9.9915
 IR Inten    --     81.1190               108.4571                67.2828

 - Thermochemistry -
 -------------------
 Temperature   298.150 Kelvin.  Pressure   1.00000 Atm.
 Atom     1 has atomic number 14 and mass  27.97693

 Molecular mass:   158.02467 amu.
 Principal axes and moments of inertia in atomic units:
                           1         2         3
     Eigenvalues --   808.153931858.279262044.54743
           X            0.99980   0.01751  -0.01013
           Y           -0.01731   0.99967   0.01909
           Z            0.01046  -0.01892   0.99977
 This molecule is an asymmetric top.
 Rotational symmetry number  1.
 Warning -- assumption of classical behavior for rotation
           may cause significant error
 Rotational temperatures (Kelvin)      0.10718     0.04661     0.04236
 Rotational constants (GHZ):           2.23317     0.97119     0.88271
    1 imaginary frequencies ignored.
 Zero-point vibrational energy     385121.3 (Joules/Mol)
                                   92.04620 (Kcal/Mol)
 Warning -- explicit consideration of  17 degrees of freedom as
           vibrations may cause significant error
 Vibrational temperatures:     86.01   177.38   241.69   282.03   297.22
          (Kelvin)            323.58   377.94   393.47   402.23   445.36
                              478.81   513.74   531.76   559.41   663.16
                              816.88   853.43  1023.83  1033.06  1086.86
                             1181.80  1249.74  1263.99  1287.62  1313.62
                             1364.49  1395.31  1517.96  1577.54  1595.53
                             1639.88  1791.08  1835.25  2001.51  2035.26
                             2068.21  2075.07  2154.67  2164.73  2175.66
                             2987.02  4398.19  4445.00  4477.09  4586.88
                             5024.62  5353.24  5625.23  5727.44  5737.41

 Zero-point correction=                           0.146685 (Hartree/Particle)
 Thermal correction to Energy=                    0.157905
 Thermal correction to Enthalpy=                  0.158849
 Thermal correction to Gibbs Free Energy=         0.110727
 Sum of electronic and zero-point Energies=           -823.158014
 Sum of electronic and thermal Energies=              -823.146794
 Sum of electronic and thermal Enthalpies=            -823.145850
 Sum of electronic and thermal Free Energies=         -823.193972

                     E (Thermal)             CV                S
                      KCal/Mol        Cal/Mol-Kelvin    Cal/Mol-Kelvin
 Total                   99.087             41.684            101.283
 Electronic               0.000              0.000              0.000
 Translational            0.889              2.981             41.082
 Rotational               0.889              2.981             29.508
 Vibrational             97.310             35.723             30.693
 Vibration     1          0.597              1.973              4.464
 Vibration     2          0.610              1.930              3.048
 Vibration     3          0.625              1.882              2.458
 Vibration     4          0.636              1.845              2.170
 Vibration     5          0.641              1.831              2.074
 Vibration     6          0.650              1.803              1.919
 Vibration     7          0.670              1.741              1.644
 Vibration     8          0.676              1.722              1.574
 Vibration     9          0.680              1.711              1.536
 Vibration    10          0.699              1.656              1.365
 Vibration    11          0.715              1.610              1.247
 Vibration    12          0.732              1.561              1.135
 Vibration    13          0.742              1.535              1.081
 Vibration    14          0.757              1.494              1.005
 Vibration    15          0.819              1.337              0.763
 Vibration    16          0.924              1.101              0.509
 Vibration    17          0.951              1.046              0.462

 Optimization completed.
    -- Stationary point found.
 Normal termination of Gaussian 16 at Wed Nov  1 15:44:07 2023.
