 Gaussian 16, Revision C.01,
 Gaussian 16:  ES64L-G16RevC.01  3-Jul-2019

 ------------------------------------------------------------------
 # opt=(calcall,ts,noeigen) freq wb97xd/def2tzvpp geom=connectivity
 ------------------------------------------------------------------

 --------------------------------------------------------
 SiOH4 TS opt from frozen result calc all force constants
 --------------------------------------------------------
 Symbolic Z-matrix:
 Charge =  0 Multiplicity = 1

 SCF Done:  E(RwB97XD) =  -823.269684127     A.U. after   15 cycles
 SCF Done:  E(RwB97XD) =  -823.258691917     A.U. after   14 cycles
 SCF Done:  E(RwB97XD) =  -823.250094949     A.U. after   15 cycles
 SCF Done:  E(RwB97XD) =  -823.245854435     A.U. after   14 cycles
 SCF Done:  E(RwB97XD) =  -823.247028254     A.U. after   13 cycles
 SCF Done:  E(RwB97XD) =  -823.249269527     A.U. after   13 cycles
 SCF Done:  E(RwB97XD) =  -823.251893777     A.U. after   13 cycles
 SCF Done:  E(RwB97XD) =  -823.254548694     A.U. after   13 cycles
 SCF Done:  E(RwB97XD) =  -823.256356346     A.U. after   13 cycles
 SCF Done:  E(RwB97XD) =  -823.257280269     A.U. after   13 cycles
 SCF Done:  E(RwB97XD) =  -823.265223440     A.U. after   12 cycles
 SCF Done:  E(RwB97XD) =  -823.270917397     A.U. after   13 cycles
 SCF Done:  E(RwB97XD) =  -823.268801642     A.U. after   12 cycles
 SCF Done:  E(RwB97XD) =  -823.265469490     A.U. after   13 cycles
 SCF Done:  E(RwB97XD) =  -823.262742180     A.U. after   13 cycles
 SCF Done:  E(RwB97XD) =  -823.261945670     A.U. after   13 cycles
 SCF Done:  E(RwB97XD) =  -823.261995927     A.U. after   12 cycles
 SCF Done:  E(RwB97XD) =  -823.262022556     A.U. after   10 cycles
 SCF Done:  E(RwB97XD) =  -823.262022716     A.U. after    7 cycles
 Optimization completed.
    -- Stationary point found.
 ******    1 imaginary frequencies (negative Signs) ******
    1 imaginary frequencies ignored.
 Normal termination of Gaussian 16 at Mon Oct  2 21:00:50 2023.

 ----------------------------------------------------------------------
 #N Geom=AllCheck Guess=TCheck SCRF=Check GenChk RwB97XD/def2TZVPP Freq
 ----------------------------------------------------------------------

 Structure from the checkpoint file:  "TSoptfromFrozenCalcAll.chk"
 --------------------------------------------------------
 SiOH4 TS opt from frozen result calc all force constants
 --------------------------------------------------------
 Charge =  0 Multiplicity = 1

                         Standard orientation:
 ---------------------------------------------------------------------
 Center     Atomic      Atomic             Coordinates (Angstroms)
 Number     Number       Type             X           Y           Z
 ---------------------------------------------------------------------
      1          6           0        1.607619    0.696579    0.777475
      2          1           0        0.721370    1.047989    1.310972
      3          1           0        2.467391    0.867746    1.427607
      4          6           0        1.470488   -0.778002    0.525069
      5          1           0        1.074060   -1.089916   -0.423479
      6          1           0        1.707787   -1.505842    1.285005
      7          8           0        1.809837    1.352255   -0.439161
      8          1           0        3.054540    0.099675   -0.732277
      9          8           0        3.290169   -0.770044   -0.327638
     10          1           0        3.336503   -1.404220   -1.045420
     11         14           0       -1.433186    0.024618   -0.166691
     12          8           0       -2.096095    1.252897    0.698981
     13          1           0       -2.819619    1.028448    1.278720
     14          8           0       -0.423555    0.483446   -1.255487
     15          1           0        0.934731    1.179461   -0.933632
     16          8           0       -0.602644   -0.924806    1.026280
     17          1           0       -0.930864   -1.823387    1.058831
     18          8           0       -2.617437   -1.045221   -0.600214
     19          1           0       -2.832144   -1.044278   -1.530005
 ---------------------------------------------------------------------

 SCF Done:  E(RwB97XD) =  -823.262022716     A.U. after    1 cycles

 The electronic state is 1-A.
 Alpha  occ. eigenvalues --  -66.26258 -19.31997 -19.25946 -19.24299 -19.22992
 Alpha  occ. eigenvalues --  -19.22164 -19.14524 -10.41098 -10.35510  -5.38091
 Alpha  occ. eigenvalues --   -3.72726  -3.72601  -3.72377  -1.18442  -1.12807
 Alpha  occ. eigenvalues --   -1.11782  -1.08578  -1.07303  -0.96942  -0.88423
 Alpha  occ. eigenvalues --   -0.74512  -0.69327  -0.64170  -0.62064  -0.60320
 Alpha  occ. eigenvalues --   -0.59277  -0.57870  -0.55862  -0.54356  -0.51656
 Alpha  occ. eigenvalues --   -0.49155  -0.47600  -0.46985  -0.45305  -0.44079
 Alpha  occ. eigenvalues --   -0.42294  -0.39977  -0.38758  -0.38422  -0.37744
 Alpha  occ. eigenvalues --   -0.33408  -0.33131
 Alpha virt. eigenvalues --    0.00269   0.08029   0.10486   0.12904   0.13600
 Alpha virt. eigenvalues --    0.15165   0.16145   0.17272   0.18293   0.19858
 Alpha virt. eigenvalues --    0.20828   0.22410   0.23945   0.26112   0.27662

 Mulliken charges:
               1
     1  C    0.039837
     2  H    0.122264
     3  H    0.105278
     4  C    0.017795
     5  H    0.186342
     6  H    0.160359
     7  O   -0.437091
     8  H    0.233573
     9  O   -0.261276
    10  H    0.191314
    11  Si   0.764197
    12  O   -0.379600
    13  H    0.165094
    14  O   -0.690417
    15  H    0.269345
    16  O   -0.410119
    17  H    0.181996
    18  O   -0.448084
    19  H    0.189195
 Sum of Mulliken charges =  -0.00000

 Dipole moment (field-independent basis, Debye):
    X=              3.0251    Y=             -5.0684    Z=              1.6578  Tot=              6.1309
 Quadrupole moment (field-independent basis, Debye-Ang):
   XX=            -52.2754   YY=            -59.9807   ZZ=            -56.8365
   XY=             -5.1169   XZ=             -2.5658   YZ=              3.9696

  Exact polarizability:      97.680       0.355      69.202      -3.905       0.710      67.808
 Approx polarizability:      91.429       1.561      75.887      -5.652      -0.653      76.667

 ******    1 imaginary frequencies (negative Signs) ******

                      1                      2                      3
                      A                      A                      A
 Frequencies --   -412.8036                39.4010                88.1243
 Red. masses --      6.0059                 6.3649                 5.6598
 Frc consts  --      0.6030                 0.0058                 0.0259
 IR Inten    --    382.5113                 1.7011                10.2468

                      4                      5                      6
                      A                      A                      A
 Frequencies --    150.9132               162.6715               209.7416
 Red. masses --      2.2780                 2.9878                 2.4535
 Frc consts  --      0.0306                 0.0466                 0.0636
 IR Inten    --     12.9566                 0.4517                32.7447

                      7                      8                      9
                      A                      A                      A
 Frequencies --    214.3907               230.4222               250.3992
 Red. masses --      4.0880                 2.3089                 2.5523
 Frc consts  --      0.1107                 0.0722                 0.0943
 IR Inten    --     16.8668               158.5350                36.3006

                     10                     11                     12
                      A                      A                      A
 Frequencies --    284.5031               312.4038               347.6975
 Red. masses --      3.5778                 2.3017                 3.8424
 Frc consts  --      0.1706                 0.1324                 0.2737
 IR Inten    --     11.3287                 8.7979                18.1329

                     13                     14                     15
                      A                      A                      A
 Frequencies --    360.1453               374.0117               404.8807
 Red. masses --      2.0881                 4.1573                 3.1765
 Frc consts  --      0.1596                 0.3426                 0.3068
 IR Inten    --      2.8270                59.2897                62.4153

                     16                     17                     18
                      A                      A                      A
 Frequencies --    429.1127               482.8537               498.2737
 Red. masses --      7.0718                 1.4087                 1.6162
 Frc consts  --      0.7672                 0.1935                 0.2364
 IR Inten    --    113.9391                82.1768               104.2637

                     19                     20                     21
                      A                      A                      A
 Frequencies --    524.9054               652.8005               680.8816
 Red. masses --      1.9983                 1.2200                 4.9787
 Frc consts  --      0.3244                 0.3063                 1.3599
 IR Inten    --      6.6863               138.1559               100.3808

                     22                     23                     24
                      A                      A                      A
 Frequencies --    799.1913               855.6676               859.8303
 Red. masses --      5.3454                 1.3000                 1.7748
 Frc consts  --      2.0116                 0.5608                 0.7731
 IR Inten    --    150.9083               126.9463               205.1925

                     25                     26                     27
                      A                      A                      A
 Frequencies --    882.9073               906.4900               941.5019
 Red. masses --      1.7066                 1.6766                 1.4926
 Frc consts  --      0.7838                 0.8117                 0.7796
 IR Inten    --     87.5758                15.6798                 8.5381

                     28                     29                     30
                      A                      A                      A
 Frequencies --    951.2795               966.1461              1039.7942
 Red. masses --      1.1793                 1.8601                 1.3713
 Frc consts  --      0.6288                 1.0230                 0.8735
 IR Inten    --    194.7880               154.6219                42.5990

                     31                     32                     33
                      A                      A                      A
 Frequencies --   1062.1839              1091.4227              1139.6219
 Red. masses --      1.4046                 1.4207                 6.4057
 Frc consts  --      0.9337                 0.9971                 4.9016
 IR Inten    --    126.4680                93.4966               189.0081

                     34                     35                     36
                      A                      A                      A
 Frequencies --   1162.5551              1225.6491              1273.2995
 Red. masses --      2.5824                 1.1148                 1.0900
 Frc consts  --      2.0563                 0.9867                 1.0412
 IR Inten    --    150.6779                12.3922                28.0227

                     37                     38                     39
                      A                      A                      A
 Frequencies --   1371.3465              1450.3898              1495.4197
 Red. masses --      1.2819                 1.2208                 1.0899
 Frc consts  --      1.4204                 1.5131                 1.4361
 IR Inten    --      9.8152                 6.8535                11.1036

                     40                     41                     42
                      A                      A                      A
 Frequencies --   1568.6294              1669.7245              2777.7754
 Red. masses --      1.1377                 1.0669                 1.0717
 Frc consts  --      1.6494                 1.7525                 4.8723
 IR Inten    --    144.3852                63.5904              1235.3161

                     43                     44                     45
                      A                      A                      A
 Frequencies --   3067.7775              3109.9106              3208.2793
 Red. masses --      1.0598                 1.1049                 1.0535
 Frc consts  --      5.8768                 6.2958                 6.3888
 IR Inten    --      7.2684                 3.8318                 4.3941

                     46                     47                     48
                      A                      A                      A
 Frequencies --   3348.0013              3372.2719              3915.6971
 Red. masses --      1.1242                 1.0663                 1.0670
 Frc consts  --      7.4242                 7.1444                 9.6390
 IR Inten    --     10.1344               300.1492               119.6372

                     49                     50                     51
                      A                      A                      A
 Frequencies --   3930.0488              3977.8947              3979.4880
 Red. masses --      1.0659                 1.0660                 1.0664
 Frc consts  --      9.6995                 9.9384                 9.9500
 IR Inten    --     84.1257                95.3618                68.9523

 - Thermochemistry -
 -------------------
 Temperature   298.150 Kelvin.  Pressure   1.00000 Atm.
 Atom     1 has atomic number  6 and mass  12.00000

 Molecular mass:   158.02467 amu.
 Principal axes and moments of inertia in atomic units:
                           1         2         3
     Eigenvalues --   753.814012365.410682512.78471
           X            0.99998  -0.00537  -0.00146
           Y            0.00544   0.99833   0.05751
           Z            0.00114  -0.05751   0.99834
 This molecule is an asymmetric top.
 Rotational symmetry number  1.
 Warning -- assumption of classical behavior for rotation
           may cause significant error
 Rotational temperatures (Kelvin)      0.11490     0.03662     0.03447
 Rotational constants (GHZ):           2.39415     0.76297     0.71822
    1 imaginary frequencies ignored.
 Zero-point vibrational energy     383395.5 (Joules/Mol)
                                   91.63373 (Kcal/Mol)
 Warning -- explicit consideration of  18 degrees of freedom as
           vibrations may cause significant error
 Vibrational temperatures:     56.69   126.79   217.13   234.05   301.77
          (Kelvin)            308.46   331.53   360.27   409.34   449.48
                              500.26   518.17   538.12   582.53   617.40
                              694.72   716.90   755.22   939.23   979.64
                             1149.86  1231.11  1237.10  1270.31  1304.24
                             1354.61  1368.68  1390.07  1496.03  1528.25
                             1570.31  1639.66  1672.66  1763.44  1831.99
                             1973.06  2086.79  2151.58  2256.91  2402.36
                             3996.60  4413.85  4474.47  4616.00  4817.03
                             4851.95  5633.81  5654.46  5723.30  5725.60

 Zero-point correction=                           0.146028 (Hartree/Particle)
 Thermal correction to Energy=                    0.157855
 Thermal correction to Enthalpy=                  0.158799
 Thermal correction to Gibbs Free Energy=         0.108870
 Sum of electronic and zero-point Energies=           -823.115995
 Sum of electronic and thermal Energies=              -823.104168
 Sum of electronic and thermal Enthalpies=            -823.103224
 Sum of electronic and thermal Free Energies=         -823.153153

                     E (Thermal)             CV                S
                      KCal/Mol        Cal/Mol-Kelvin    Cal/Mol-Kelvin
 Total                   99.055             43.527            105.085
 Electronic               0.000              0.000              0.000
 Translational            0.889              2.981             41.082
 Rotational               0.889              2.981             29.884
 Vibrational             97.278             37.565             34.119
 Vibration     1          0.594              1.981              5.289
 Vibration     2          0.601              1.958              3.701
 Vibration     3          0.618              1.902              2.661
 Vibration     4          0.623              1.888              2.518
 Vibration     5          0.642              1.826              2.046
 Vibration     6          0.644              1.819              2.006
 Vibration     7          0.652              1.795              1.876
 Vibration     8          0.663              1.762              1.728
 Vibration     9          0.683              1.702              1.506
 Vibration    10          0.701              1.650              1.350
 Vibration    11          0.725              1.580              1.177
 Vibration    12          0.735              1.554              1.121
 Vibration    13          0.745              1.525              1.063
 Vibration    14          0.770              1.460              0.945
 Vibration    15          0.790              1.407              0.862
 Vibration    16          0.839              1.288              0.702
 Vibration    17          0.854              1.254              0.662
 Vibration    18          0.880              1.195              0.599

 Optimization completed.
    -- Stationary point found.
 Normal termination of Gaussian 16 at Mon Oct  2 21:15:00 2023.
