 Gaussian 16, Revision C.01,
 Gaussian 16:  ES64L-G16RevC.01  3-Jul-2019

 ----------------------------------------------------------
 # opt=modredundant freq wb97xd/def2tzvpp geom=connectivity
 ----------------------------------------------------------

 ---------------------------------------------------------------------
 EG attack on PL2 extend attacking bond length attacking OH protonated
 ---------------------------------------------------------------------
 Symbolic Z-matrix:
 Charge = -2 Multiplicity = 1

 SCF Done:  E(RwB97XD) =  -1053.23607558     A.U. after   16 cycles
 SCF Done:  E(RwB97XD) =  -1053.26719067     A.U. after   14 cycles
 SCF Done:  E(RwB97XD) =  -1053.29130863     A.U. after   16 cycles
 SCF Done:  E(RwB97XD) =  -1053.29596387     A.U. after   14 cycles
 SCF Done:  E(RwB97XD) =  -1053.29858047     A.U. after   14 cycles
 SCF Done:  E(RwB97XD) =  -1053.29961125     A.U. after   14 cycles
 SCF Done:  E(RwB97XD) =  -1053.30038375     A.U. after   14 cycles
 SCF Done:  E(RwB97XD) =  -1053.30135819     A.U. after   15 cycles
 SCF Done:  E(RwB97XD) =  -1053.30186448     A.U. after   15 cycles
 SCF Done:  E(RwB97XD) =  -1053.30294120     A.U. after   15 cycles
 SCF Done:  E(RwB97XD) =  -1053.33011418     A.U. after   13 cycles
 SCF Done:  E(RwB97XD) =  -1053.32997215     A.U. after   13 cycles
 SCF Done:  E(RwB97XD) =  -1053.33011648     A.U. after   13 cycles
 SCF Done:  E(RwB97XD) =  -1053.33028338     A.U. after   12 cycles
 SCF Done:  E(RwB97XD) =  -1053.33029221     A.U. after   12 cycles
 SCF Done:  E(RwB97XD) =  -1053.33029514     A.U. after   10 cycles
 SCF Done:  E(RwB97XD) =  -1053.33029544     A.U. after    9 cycles
 SCF Done:  E(RwB97XD) =  -1053.33029558     A.U. after    8 cycles
 SCF Done:  E(RwB97XD) =  -1053.33029561     A.U. after    7 cycles
 Optimization completed.
    -- Stationary point found.
 Normal termination of Gaussian 16 at Fri Feb 16 02:28:55 2024.

 ----------------------------------------------------------------------
 #N Geom=AllCheck Guess=TCheck SCRF=Check GenChk RwB97XD/def2TZVPP Freq
 ----------------------------------------------------------------------

 Structure from the checkpoint file:  "EG_DeprotonatedOH_AttackPL2.chk"
 ---------------------------------------------------------------------
 EG attack on PL2 extend attacking bond length attacking OH protonated
 ---------------------------------------------------------------------
 Charge = -2 Multiplicity = 1

                         Standard orientation:
 ---------------------------------------------------------------------
 Center     Atomic      Atomic             Coordinates (Angstroms)
 Number     Number       Type             X           Y           Z
 ---------------------------------------------------------------------
      1         14           0        0.966341   -0.406926   -0.013958
      2          8           0        0.257898   -1.482157    1.197317
      3          8           0       -0.066532   -1.133533   -1.227575
      4          8           0        1.379084    0.819461   -1.181827
      5          8           0        1.583272    0.614669    1.268153
      6          8           0       -1.003931    0.952353    0.416177
      7          8           0        2.388718   -1.386044   -0.246290
      8          1           0        2.389416   -1.985970    0.496198
      9          6           0        2.105557    1.857857   -0.641253
     10          1           0        3.194380    1.688839   -0.768041
     11          1           0        1.860454    2.811371   -1.140841
     12          6           0        1.769404    1.916700    0.855532
     13          1           0        2.589137    2.396188    1.421199
     14          1           0        0.848865    2.503266    1.001677
     15          6           0       -0.881289   -2.115394    0.739946
     16          1           0       -0.998853   -3.106235    1.214695
     17          1           0       -1.779011   -1.519614    0.962257
     18          6           0       -0.723206   -2.255870   -0.779320
     19          1           0       -0.140936   -3.175020   -1.003399
     20          1           0       -1.705153   -2.362488   -1.271433
     21          6           0       -1.718029    1.379808   -0.655234
     22          1           0       -1.290117    1.070867   -1.623993
     23          1           0       -1.810702    2.498361   -0.691062
     24          6           0       -3.157227    0.809073   -0.534469
     25          1           0       -3.898320    1.417420   -1.075385
     26          1           0       -3.178737   -0.212242   -0.948678
     27          8           0       -3.470160    0.784088    0.840957
     28          1           0       -2.527250    0.768470    1.175703
 ---------------------------------------------------------------------

 SCF Done:  E(RwB97XD) =  -1053.33029561     A.U. after    1 cycles

 The electronic state is 1-A.
 Alpha  occ. eigenvalues --  -65.99307 -18.95109 -18.91304 -18.91303 -18.91203
 Alpha  occ. eigenvalues --  -18.90747 -18.90399 -18.85917 -10.04357 -10.04268
 Alpha  occ. eigenvalues --  -10.04265 -10.03725 -10.03445 -10.01364  -5.10037
 Alpha  occ. eigenvalues --   -3.44702  -3.44566  -3.44463  -0.83645  -0.83301
 Alpha  occ. eigenvalues --   -0.81288  -0.77125  -0.75713  -0.75281  -0.72517
 Alpha  occ. eigenvalues --   -0.53384  -0.51414  -0.51137  -0.41479  -0.39232
 Alpha  occ. eigenvalues --   -0.38525  -0.32642  -0.30021  -0.29589  -0.28082
 Alpha  occ. eigenvalues --   -0.27769  -0.27540  -0.26338  -0.24341  -0.24240
 Alpha  occ. eigenvalues --   -0.22699  -0.21523  -0.20094  -0.19481  -0.18379
 Alpha  occ. eigenvalues --   -0.16874  -0.15335  -0.13433  -0.12363  -0.10107
 Alpha  occ. eigenvalues --   -0.09536  -0.09301  -0.07862  -0.07711  -0.07188
 Alpha  occ. eigenvalues --   -0.06166  -0.04382  -0.03531  -0.02057  -0.00518
 Alpha  occ. eigenvalues --    0.01030
 Alpha virt. eigenvalues --    0.36016   0.36500   0.37483   0.38991   0.39567
 Alpha virt. eigenvalues --    0.40218   0.40840   0.41248   0.42796   0.43530
 Alpha virt. eigenvalues --    0.44698   0.45863   0.46687   0.47710   0.48357

 Mulliken charges:
               1
     1  Si   0.891478
     2  O   -0.495401
     3  O   -0.453437
     4  O   -0.480347
     5  O   -0.458281
     6  O   -0.687205
     7  O   -0.524813
     8  H    0.121430
     9  C    0.115066
    10  H   -0.022172
    11  H   -0.028575
    12  C    0.094321
    13  H   -0.039522
    14  H    0.007205
    15  C    0.073002
    16  H   -0.037904
    17  H    0.019514
    18  C    0.101987
    19  H   -0.028548
    20  H   -0.019321
    21  C    0.141868
    22  H   -0.007635
    23  H   -0.074835
    24  C    0.086048
    25  H   -0.017728
    26  H    0.004710
    27  O   -0.506652
    28  H    0.225745
 Sum of Mulliken charges =  -2.00000

 Dipole moment (field-independent basis, Debye):
    X=              0.2995    Y=             -0.7313    Z=             -0.6808  Tot=              1.0431
 Quadrupole moment (field-independent basis, Debye-Ang):
   XX=           -144.6466   YY=           -115.0058   ZZ=           -114.7700
   XY=              7.3516   XZ=              6.9701   YZ=             -2.7508

  Exact polarizability:     145.136       5.806     144.943       3.544      -2.479     115.451
 Approx polarizability:     140.864       3.170     143.424       3.539      -3.235     134.112

 ******    1 imaginary frequencies (negative Signs) ******

                      1                      2                      3
                      A                      A                      A
 Frequencies --   -121.1121                38.6305                52.6392
 Red. masses --      8.7239                 5.1990                 4.5810
 Frc consts  --      0.0754                 0.0046                 0.0075
 IR Inten    --     65.9383                 0.6984                 0.3885

                      4                      5                      6
                      A                      A                      A
 Frequencies --     96.6137                97.8147               111.0823
 Red. masses --      2.8358                 3.4582                 3.3964
 Frc consts  --      0.0156                 0.0195                 0.0247
 IR Inten    --     10.8223                 1.1303                 6.1557

                      7                      8                      9
                      A                      A                      A
 Frequencies --    152.7102               158.6274               177.8318
 Red. masses --      4.2366                 3.0506                 3.7536
 Frc consts  --      0.0582                 0.0452                 0.0699
 IR Inten    --      5.2414                 8.7490                 4.2799

                     10                     11                     12
                      A                      A                      A
 Frequencies --    217.0069               233.7656               244.8351
 Red. masses --      2.4751                 1.4899                 2.6598
 Frc consts  --      0.0687                 0.0480                 0.0939
 IR Inten    --      3.4610                18.3599                30.6875

                     13                     14                     15
                      A                      A                      A
 Frequencies --    300.0018               324.8761               338.7427
 Red. masses --      2.3531                 4.3384                 5.2487
 Frc consts  --      0.1248                 0.2698                 0.3548
 IR Inten    --      8.2599                14.0869                14.0782

                     16                     17                     18
                      A                      A                      A
 Frequencies --    352.8242               370.2813               395.1804
 Red. masses --      5.6990                 5.7072                 5.7379
 Frc consts  --      0.4180                 0.4610                 0.5280
 IR Inten    --     40.0758                38.9104                13.5257

                     19                     20                     21
                      A                      A                      A
 Frequencies --    432.0802               460.7239               585.7048
 Red. masses --      7.4171                 8.6648                11.3985
 Frc consts  --      0.8159                 1.0836                 2.3038
 IR Inten    --      0.0500                44.3596                28.2747

                     22                     23                     24
                      A                      A                      A
 Frequencies --    607.9821               617.6538               635.8258
 Red. masses --      2.4666                 3.6265                 8.9708
 Frc consts  --      0.5372                 0.8151                 2.1368
 IR Inten    --     14.0302                31.1047                33.8792

                     25                     26                     27
                      A                      A                      A
 Frequencies --    642.5900               668.7304               704.9219
 Red. masses --      2.4230                 9.7282                 4.0491
 Frc consts  --      0.5895                 2.5632                 1.1855
 IR Inten    --      1.0515               251.8415               193.6565

                     28                     29                     30
                      A                      A                      A
 Frequencies --    739.4499               865.0498               891.6503
 Red. masses --     10.2892                 2.2251                 1.6714
 Frc consts  --      3.3147                 0.9810                 0.7829
 IR Inten    --    494.1762                 8.9308                32.1918

                     31                     32                     33
                      A                      A                      A
 Frequencies --    911.6557               922.7421               925.5430
 Red. masses --      1.7165                 1.7568                 1.7901
 Frc consts  --      0.8405                 0.8813                 0.9035
 IR Inten    --      2.5105                35.4291                36.6569

                     34                     35                     36
                      A                      A                      A
 Frequencies --    926.5363               928.9329               988.1601
 Red. masses --      1.9911                 1.6139                 1.2379
 Frc consts  --      1.0071                 0.8205                 0.7122
 IR Inten    --     41.7683                43.4315               174.4541

                     37                     38                     39
                      A                      A                      A
 Frequencies --   1094.2506              1143.0014              1147.0270
 Red. masses --      4.2437                 2.5846                 2.2425
 Frc consts  --      2.9938                 1.9895                 1.7384
 IR Inten    --     91.6755               206.2098                17.8602

                     40                     41                     42
                      A                      A                      A
 Frequencies --   1150.4012              1167.8516              1172.0854
 Red. masses --      2.1055                 4.4732                 2.5119
 Frc consts  --      1.6418                 3.5946                 2.0332
 IR Inten    --      8.0582                 7.9283                95.3923

                     43                     44                     45
                      A                      A                      A
 Frequencies --   1185.7468              1190.4101              1209.0464
 Red. masses --      3.2257                 3.6095                 2.9743
 Frc consts  --      2.6722                 3.0137                 2.5616
 IR Inten    --    283.1197                90.1514                 2.1772

                     46                     47                     48
                      A                      A                      A
 Frequencies --   1216.2802              1254.5777              1255.5057
 Red. masses --      1.5243                 1.1625                 1.1822
 Frc consts  --      1.3286                 1.0781                 1.0979
 IR Inten    --     38.6363                10.5329                20.7546

                     49                     50                     51
                      A                      A                      A
 Frequencies --   1258.5784              1260.8191              1265.8160
 Red. masses --      1.2645                 1.2161                 1.2415
 Frc consts  --      1.1801                 1.1390                 1.1720
 IR Inten    --      2.5622                 2.8003                 4.4623

                     52                     53                     54
                      A                      A                      A
 Frequencies --   1328.3977              1371.2921              1374.6735
 Red. masses --      1.2249                 1.2561                 1.3090
 Frc consts  --      1.2735                 1.3916                 1.4574
 IR Inten    --     12.1147                17.9272                 2.9068

                     55                     56                     57
                      A                      A                      A
 Frequencies --   1384.2624              1394.7465              1398.9123
 Red. masses --      1.3486                 1.2809                 1.2890
 Frc consts  --      1.5225                 1.4681                 1.4863
 IR Inten    --     17.0095                16.0644                 7.7504

                     58                     59                     60
                      A                      A                      A
 Frequencies --   1479.8318              1485.7499              1495.9743
 Red. masses --      1.0984                 1.0921                 1.0932
 Frc consts  --      1.4172                 1.4204                 1.4414
 IR Inten    --     28.3388                 5.5473                 2.8925

                     61                     62                     63
                      A                      A                      A
 Frequencies --   1500.7422              1504.0381              1508.7040
 Red. masses --      1.0941                 1.0867                 1.1017
 Frc consts  --      1.4518                 1.4484                 1.4775
 IR Inten    --      3.6041                 7.2012                 6.6578

                     64                     65                     66
                      A                      A                      A
 Frequencies --   1535.8730              2682.0574              2828.0224
 Red. masses --      1.1763                 1.0722                 1.0747
 Frc consts  --      1.6348                 4.5443                 5.0641
 IR Inten    --    176.6031               404.7992               207.1093

                     67                     68                     69
                      A                      A                      A
 Frequencies --   2846.5008              2899.0577              2904.6043
 Red. masses --      1.0748                 1.0709                 1.0725
 Frc consts  --      5.1308                 5.3030                 5.3314
 IR Inten    --    187.2315               393.5055               308.4461

                     70                     71                     72
                      A                      A                      A
 Frequencies --   2914.8344              2921.4675              2923.5562
 Red. masses --      1.0783                 1.0692                 1.0735
 Frc consts  --      5.3979                 5.3765                 5.4062
 IR Inten    --    276.6072                 4.3060               193.9437

                     73                     74                     75
                      A                      A                      A
 Frequencies --   2944.8128              2963.0338              2964.0863
 Red. masses --      1.0691                 1.1013                 1.0919
 Frc consts  --      5.4622                 5.6966                 5.6522
 IR Inten    --    198.4108                80.9979               289.3796

                     76                     77                     78
                      A                      A                      A
 Frequencies --   2984.7348              3146.7765              3953.4462
 Red. masses --      1.0874                 1.0641                 1.0648
 Frc consts  --      5.7075                 6.2084                 9.8058
 IR Inten    --     99.5361               437.7678                 5.0513

 - Thermochemistry -
 -------------------
 Temperature   298.150 Kelvin.  Pressure   1.00000 Atm.
 Atom     1 has atomic number 14 and mass  27.97693

 Molecular mass:   226.05088 amu.
 Principal axes and moments of inertia in atomic units:
                           1         2         3
     Eigenvalues --  2108.981923191.293844135.94867
           X            0.99916   0.03849   0.01408
           Y           -0.03837   0.99922  -0.00886
           Z           -0.01441   0.00831   0.99986
 This molecule is an asymmetric top.
 Rotational symmetry number  1.
 Warning -- assumption of classical behavior for rotation
           may cause significant error
 Rotational temperatures (Kelvin)      0.04107     0.02714     0.02094
 Rotational constants (GHZ):           0.85574     0.56552     0.43635
    1 imaginary frequencies ignored.
 Zero-point vibrational energy     572598.4 (Joules/Mol)
                                  136.85431 (Kcal/Mol)
 Warning -- explicit consideration of  22 degrees of freedom as
           vibrations may cause significant error
 Vibrational temperatures:     55.58    75.74   139.01   140.73   159.82
          (Kelvin)            219.72   228.23   255.86   312.22   336.34
                              352.26   431.64   467.42   487.38   507.64
                              532.75   568.58   621.67   662.88   842.70
                              874.75   888.67   914.81   924.54   962.15
                             1014.23  1063.90  1244.61  1282.89  1311.67
                             1327.62  1331.65  1333.08  1336.53  1421.74
                             1574.38  1644.52  1650.32  1655.17  1680.28
                             1686.37  1706.03  1712.73  1739.55  1749.96
                             1805.06  1806.39  1810.81  1814.04  1821.23
                             1911.27  1972.98  1977.85  1991.64  2006.73
                             2012.72  2129.15  2137.66  2152.37  2159.23
                             2163.98  2170.69  2209.78  3858.88  4068.89
                             4095.48  4171.10  4179.08  4193.80  4203.34
                             4206.35  4236.93  4263.14  4264.66  4294.37
                             4527.51  5688.13

 Zero-point correction=                           0.218091 (Hartree/Particle)
 Thermal correction to Energy=                    0.232771
 Thermal correction to Enthalpy=                  0.233715
 Thermal correction to Gibbs Free Energy=         0.176242
 Sum of electronic and zero-point Energies=          -1053.112204
 Sum of electronic and thermal Energies=             -1053.097525
 Sum of electronic and thermal Enthalpies=           -1053.096581
 Sum of electronic and thermal Free Energies=        -1053.154053

                     E (Thermal)             CV                S
                      KCal/Mol        Cal/Mol-Kelvin    Cal/Mol-Kelvin
 Total                  146.066             54.601            120.961
 Electronic               0.000              0.000              0.000
 Translational            0.889              2.981             42.149
 Rotational               0.889              2.981             31.699
 Vibrational            144.288             48.639             47.113
 Vibration     1          0.594              1.981              5.328
 Vibration     2          0.596              1.977              4.716
 Vibration     3          0.603              1.952              3.522
 Vibration     4          0.603              1.951              3.497
 Vibration     5          0.607              1.940              3.250
 Vibration     6          0.619              1.900              2.638
 Vibration     7          0.621              1.893              2.566
 Vibration     8          0.628              1.870              2.351
 Vibration     9          0.646              1.815              1.984
 Vibration    10          0.654              1.789              1.850
 Vibration    11          0.660              1.771              1.767
 Vibration    12          0.693              1.674              1.417
 Vibration    13          0.709              1.626              1.285
 Vibration    14          0.719              1.598              1.218
 Vibration    15          0.729              1.569              1.154
 Vibration    16          0.742              1.533              1.079
 Vibration    17          0.762              1.480              0.981
 Vibration    18          0.793              1.400              0.852
 Vibration    19          0.819              1.337              0.764
 Vibration    20          0.943              1.062              0.475
 Vibration    21          0.967              1.015              0.436
 Vibration    22          0.977              0.995              0.420

                           ! Non-Optimized Parameters !
 Normal termination of Gaussian 16 at Fri Feb 16 05:38:27 2024.
