 Gaussian 16, Revision C.01,
 Gaussian 16:  ES64L-G16RevC.01  3-Jul-2019

 ------------------------------------------------------------------
 # opt=(calcall,ts,noeigen) freq wb97xd/def2tzvpp geom=connectivity
 ------------------------------------------------------------------

 TS opt of point before sudden energy drop in formation of new bond wit
 h SN1 like intermediate EGOH attack on silicic acid
 ----------------------------------------------------------------------
 Symbolic Z-matrix:
 Charge = -1 Multiplicity = 1

 SCF Done:  E(RwB97XD) =  -822.758089300     A.U. after   14 cycles
 SCF Done:  E(RwB97XD) =  -822.758059804     A.U. after   13 cycles
 SCF Done:  E(RwB97XD) =  -822.758358134     A.U. after   13 cycles
 SCF Done:  E(RwB97XD) =  -822.758724789     A.U. after   12 cycles
 SCF Done:  E(RwB97XD) =  -822.758726040     A.U. after   11 cycles
 SCF Done:  E(RwB97XD) =  -822.758726144     A.U. after    8 cycles
 Optimization completed.
    -- Stationary point found.
 ******    1 imaginary frequencies (negative Signs) ******
    1 imaginary frequencies ignored.
 Normal termination of Gaussian 16 at Wed Nov 15 10:57:28 2023.

 ----------------------------------------------------------------------
 #N Geom=AllCheck Guess=TCheck SCRF=Check GenChk RwB97XD/def2TZVPP Freq
 ----------------------------------------------------------------------

 ----------------------------------------------------------------------
 TS opt of point before sudden energy drop in formation of new bond wit
 h SN1 like intermediate EGOH attack on silicic acid
 ----------------------------------------------------------------------
 Charge = -1 Multiplicity = 1

                         Standard orientation:
 ---------------------------------------------------------------------
 Center     Atomic      Atomic             Coordinates (Angstroms)
 Number     Number       Type             X           Y           Z
 ---------------------------------------------------------------------
      1         14           0        0.706646   -0.790726   -0.270565
      2          8           0        0.298025   -2.193803   -0.858430
      3          8           0        2.494540    2.007447    0.383103
      4          1           0        3.257015    1.912816   -0.184753
      5          8           0        0.669974    0.623682   -0.946465
      6          1           0        1.755425    1.615490   -0.158721
      7          8           0        1.841568   -0.852849    0.924031
      8          1           0        2.205330    0.026926    1.076403
      9          6           0       -2.229896   -0.388177    0.432356
     10          1           0       -2.948802   -0.724035    1.187778
     11          1           0       -2.595176   -0.686370   -0.555531
     12          6           0       -2.128059    1.131412    0.469206
     13          1           0       -1.477075    1.407060    1.312600
     14          1           0       -3.127354    1.523099    0.689158
     15          8           0       -0.997711   -1.041904    0.708807
     16          8           0       -1.710788    1.711564   -0.726614
     17          1           0       -0.795165    1.376563   -0.911701
     18          1           0       -0.784383   -1.873896    0.047845
 ---------------------------------------------------------------------

 SCF Done:  E(RwB97XD) =  -822.758726144     A.U. after    1 cycles

 The electronic state is 1-A.
 Alpha  occ. eigenvalues --  -66.11474 -19.13462 -19.09225 -19.08558 -19.08325
 Alpha  occ. eigenvalues --  -19.02460 -19.01478 -10.21087 -10.19870  -5.23434
 Alpha  occ. eigenvalues --   -3.58311  -3.57811  -3.57561  -1.01117  -0.96759
 Alpha  occ. eigenvalues --   -0.95827  -0.94075  -0.85342  -0.83370  -0.70799
 Alpha  occ. eigenvalues --   -0.58723  -0.49506  -0.46816  -0.45415  -0.44766
 Alpha  occ. eigenvalues --   -0.44156  -0.39693  -0.36170  -0.35542  -0.33887
 Alpha  occ. eigenvalues --   -0.31840  -0.30472  -0.28695  -0.28346  -0.26270
 Alpha  occ. eigenvalues --   -0.25223  -0.25098  -0.21857  -0.21349  -0.20111
 Alpha  occ. eigenvalues --   -0.19243  -0.18788
 Alpha virt. eigenvalues --    0.22877   0.24303   0.26704   0.28131   0.29684
 Alpha virt. eigenvalues --    0.30229   0.31272   0.31977   0.32632   0.34633
 Alpha virt. eigenvalues --    0.36818   0.38239   0.39414   0.41472   0.42271

 Mulliken charges:
               1
     1  Si   0.769952
     2  O   -0.703090
     3  O   -0.489957
     4  H    0.161710
     5  O   -0.721733
     6  H    0.265219
     7  O   -0.464079
     8  H    0.189918
     9  C    0.047573
    10  H    0.038583
    11  H    0.064304
    12  C    0.047114
    13  H    0.048279
    14  H    0.036800
    15  O   -0.324158
    16  O   -0.451460
    17  H    0.250667
    18  H    0.234359
 Sum of Mulliken charges =  -1.00000

 Dipole moment (field-independent basis, Debye):
    X=             -2.3308    Y=              0.9039    Z=              2.1638  Tot=              3.3063
 Quadrupole moment (field-independent basis, Debye-Ang):
   XX=            -66.0288   YY=            -87.9602   ZZ=            -71.1559
   XY=              5.4533   XZ=             -6.5431   YZ=             -1.5891

  Exact polarizability:      89.078      -0.095      79.344      -3.001       1.402      68.291
 Approx polarizability:      85.140       0.061      81.233      -2.165       0.870      77.303

 ******    1 imaginary frequencies (negative Signs) ******

                      1                      2                      3
                      A                      A                      A
 Frequencies --   -680.2564                35.7645                46.1550
 Red. masses --      1.5972                 4.1145                 7.2228
 Frc consts  --      0.4355                 0.0031                 0.0091
 IR Inten    --    693.9854                 5.6191                 1.6191

                      4                      5                      6
                      A                      A                      A
 Frequencies --     92.1147               123.9712               156.0248
 Red. masses --      3.9891                 7.6954                 4.0341
 Frc consts  --      0.0199                 0.0697                 0.0579
 IR Inten    --      5.4424                 5.7086                 0.4376

                      7                      8                      9
                      A                      A                      A
 Frequencies --    190.5047               222.6217               241.4124
 Red. masses --      5.1130                 2.3028                 3.1871
 Frc consts  --      0.1093                 0.0672                 0.1094
 IR Inten    --     10.8149                15.3395                51.3604

                     10                     11                     12
                      A                      A                      A
 Frequencies --    251.6475               284.4309               359.4943
 Red. masses --      2.3604                 3.9179                 5.6272
 Frc consts  --      0.0881                 0.1867                 0.4285
 IR Inten    --     48.9154                18.1126                13.2275

                     13                     14                     15
                      A                      A                      A
 Frequencies --    387.3699               423.7010               455.6138
 Red. masses --      6.2685                 6.7424                 1.2441
 Frc consts  --      0.5542                 0.7132                 0.1522
 IR Inten    --     24.3096                45.4014                47.0922

                     16                     17                     18
                      A                      A                      A
 Frequencies --    496.3953               514.1639               663.8973
 Red. masses --      3.9877                 2.6724                 1.1008
 Frc consts  --      0.5789                 0.4163                 0.2859
 IR Inten    --    349.8070               115.5573                70.8700

                     19                     20                     21
                      A                      A                      A
 Frequencies --    751.0767               819.5190               892.0404
 Red. masses --      2.3734                 7.1984                 2.7494
 Frc consts  --      0.7888                 2.8484                 1.2890
 IR Inten    --    360.7390                58.9691               118.8508

                     22                     23                     24
                      A                      A                      A
 Frequencies --    915.1024               950.2850               958.7686
 Red. masses --      1.0838                 1.4007                 1.6012
 Frc consts  --      0.5347                 0.7452                 0.8672
 IR Inten    --     40.7551                65.6191               116.1081

                     25                     26                     27
                      A                      A                      A
 Frequencies --   1010.6128              1090.1472              1111.7187
 Red. masses --      6.9211                 2.0173                 1.3494
 Frc consts  --      4.1648                 1.4125                 0.9826
 IR Inten    --    218.3157                 8.9035               181.2959

                     28                     29                     30
                      A                      A                      A
 Frequencies --   1123.3984              1162.1128              1214.9340
 Red. masses --      3.3358                 3.6014                 2.9515
 Frc consts  --      2.4804                 2.8656                 2.5669
 IR Inten    --    110.6471                84.0809               238.1170

                     31                     32                     33
                      A                      A                      A
 Frequencies --   1252.0519              1305.9843              1320.5920
 Red. masses --      1.1399                 1.1946                 1.1011
 Frc consts  --      1.0528                 1.2005                 1.1314
 IR Inten    --    167.7790               181.9423                 8.7776

                     34                     35                     36
                      A                      A                      A
 Frequencies --   1403.9680              1428.8031              1491.5763
 Red. masses --      1.2895                 1.3777                 1.0922
 Frc consts  --      1.4976                 1.6571                 1.4317
 IR Inten    --     24.9378                 7.7502                 1.2943

                     37                     38                     39
                      A                      A                      A
 Frequencies --   1499.4303              1561.6602              1699.0562
 Red. masses --      1.0872                 1.1292                 1.0730
 Frc consts  --      1.4402                 1.6225                 1.8250
 IR Inten    --      2.1992                52.6718                47.0583

                     40                     41                     42
                      A                      A                      A
 Frequencies --   2202.7621              2973.4309              3010.0924
 Red. masses --      1.0661                 1.0646                 1.0635
 Frc consts  --      3.0478                 5.5456                 5.6773
 IR Inten    --    361.6319                77.9858                43.1647

                     43                     44                     45
                      A                      A                      A
 Frequencies --   3040.5728              3066.3464              3150.4457
 Red. masses --      1.0924                 1.1047                 1.0696
 Frc consts  --      5.9503                 6.1197                 6.2546
 IR Inten    --    233.5047                47.4036              1505.3254

                     46                     47                     48
                      A                      A                      A
 Frequencies --   3237.3246              3795.8605              3953.9553
 Red. masses --      1.0714                 1.0661                 1.0649
 Frc consts  --      6.6158                 9.0500                 9.8089
 IR Inten    --    701.5607               266.8858                23.7293

 - Thermochemistry -
 -------------------
 Temperature   298.150 Kelvin.  Pressure   1.00000 Atm.
 Atom     1 has atomic number 14 and mass  27.97693

 Molecular mass:   157.01684 amu.
 Principal axes and moments of inertia in atomic units:
                           1         2         3
     Eigenvalues --  1236.599011686.850242413.07402
           X            0.99863   0.05082  -0.01213
           Y           -0.05079   0.99871   0.00237
           Z            0.01223  -0.00176   0.99992
 This molecule is an asymmetric top.
 Rotational symmetry number  1.
 Warning -- assumption of classical behavior for rotation
           may cause significant error
 Rotational temperatures (Kelvin)      0.07004     0.05135     0.03589
 Rotational constants (GHZ):           1.45944     1.06989     0.74790
    1 imaginary frequencies ignored.
 Zero-point vibrational energy     348944.2 (Joules/Mol)
                                   83.39966 (Kcal/Mol)
 Warning -- explicit consideration of  16 degrees of freedom as
           vibrations may cause significant error
 Vibrational temperatures:     51.46    66.41   132.53   178.37   224.48
          (Kelvin)            274.09   320.30   347.34   362.06   409.23
                              517.23   557.34   609.61   655.53   714.20
                              739.77   955.20  1080.63  1179.11  1283.45
                             1316.63  1367.25  1379.45  1454.05  1568.48
                             1599.52  1616.32  1672.02  1748.02  1801.42
                             1879.02  1900.04  2020.00  2055.73  2146.05
                             2157.35  2246.88  2444.56  3169.28  4278.10
                             4330.85  4374.71  4411.79  4532.79  4657.79
                             5461.40  5688.86

 Zero-point correction=                           0.132906 (Hartree/Particle)
 Thermal correction to Energy=                    0.144400
 Thermal correction to Enthalpy=                  0.145344
 Thermal correction to Gibbs Free Energy=         0.094581
 Sum of electronic and zero-point Energies=           -822.625820
 Sum of electronic and thermal Energies=              -822.614326
 Sum of electronic and thermal Enthalpies=            -822.613382
 Sum of electronic and thermal Free Energies=         -822.664146

                     E (Thermal)             CV                S
                      KCal/Mol        Cal/Mol-Kelvin    Cal/Mol-Kelvin
 Total                   90.612             39.526            106.841
 Electronic               0.000              0.000              0.000
 Translational            0.889              2.981             41.063
 Rotational               0.889              2.981             29.999
 Vibrational             88.835             33.564             35.779
 Vibration     1          0.594              1.982              5.481
 Vibration     2          0.595              1.979              4.976
 Vibration     3          0.602              1.955              3.615
 Vibration     4          0.610              1.929              3.038
 Vibration     5          0.620              1.896              2.597
 Vibration     6          0.634              1.853              2.223
 Vibration     7          0.648              1.807              1.938
 Vibration     8          0.658              1.777              1.792
 Vibration     9          0.664              1.760              1.719
 Vibration    10          0.683              1.703              1.507
 Vibration    11          0.734              1.556              1.124
 Vibration    12          0.756              1.497              1.010
 Vibration    13          0.786              1.419              0.879
 Vibration    14          0.814              1.348              0.779
 Vibration    15          0.852              1.258              0.667
 Vibration    16          0.869              1.219              0.624

 Optimization completed.
    -- Stationary point found.
 Normal termination of Gaussian 16 at Wed Nov 15 11:08:35 2023.
