 Gaussian 16, Revision C.01,
 Gaussian 16:  ES64L-G16RevC.01  3-Jul-2019

 -----------------------------------------------------------------
 # opt=(calcfc,ts,noeigen) freq wb97xd/def2tzvpp geom=connectivity
 -----------------------------------------------------------------

 --------------------------------------------------------
 Convert TS for PbiL to QbiL collapse to PbiLmL to QbiLmL
 --------------------------------------------------------
 Symbolic Z-matrix:
 Charge = -1 Multiplicity = 1

 SCF Done:  E(RwB97XD) =  -900.133163051     A.U. after   14 cycles
 SCF Done:  E(RwB97XD) =  -900.150362481     A.U. after   14 cycles
 SCF Done:  E(RwB97XD) =  -900.153619678     A.U. after   14 cycles
 SCF Done:  E(RwB97XD) =  -900.154668086     A.U. after   13 cycles
 SCF Done:  E(RwB97XD) =  -900.155284723     A.U. after   13 cycles
 SCF Done:  E(RwB97XD) =  -900.157451336     A.U. after   14 cycles
 SCF Done:  E(RwB97XD) =  -900.161996097     A.U. after   13 cycles
 SCF Done:  E(RwB97XD) =  -900.165250104     A.U. after   13 cycles
 SCF Done:  E(RwB97XD) =  -900.166384687     A.U. after   13 cycles
 SCF Done:  E(RwB97XD) =  -900.166463832     A.U. after   11 cycles
 SCF Done:  E(RwB97XD) =  -900.172930091     A.U. after   11 cycles
 SCF Done:  E(RwB97XD) =  -900.172952201     A.U. after   10 cycles
 SCF Done:  E(RwB97XD) =  -900.172960247     A.U. after    9 cycles
 SCF Done:  E(RwB97XD) =  -900.172962712     A.U. after   10 cycles
 SCF Done:  E(RwB97XD) =  -900.172965975     A.U. after    9 cycles
 SCF Done:  E(RwB97XD) =  -900.172966861     A.U. after    8 cycles
 SCF Done:  E(RwB97XD) =  -900.172966914     A.U. after    7 cycles
 SCF Done:  E(RwB97XD) =  -900.172966898     A.U. after    6 cycles
 SCF Done:  E(RwB97XD) =  -900.172966861     A.U. after    6 cycles
 Optimization completed.
    -- Stationary point found.
 Normal termination of Gaussian 16 at Thu Mar 21 16:28:33 2024.

 ----------------------------------------------------------------------
 #N Geom=AllCheck Guess=TCheck SCRF=Check GenChk RwB97XD/def2TZVPP Freq
 ----------------------------------------------------------------------

 Structure from the checkpoint file:  "Convert_PbiLQbiLCollapseTS_to_PbiLmLQbiLmLCollapse_calcfc.chk"
 --------------------------------------------------------
 Convert TS for PbiL to QbiL collapse to PbiLmL to QbiLmL
 --------------------------------------------------------
 Charge = -1 Multiplicity = 1

                         Standard orientation:
 ---------------------------------------------------------------------
 Center     Atomic      Atomic             Coordinates (Angstroms)
 Number     Number       Type             X           Y           Z
 ---------------------------------------------------------------------
      1         14           0       -0.826815    0.129472    0.300690
      2          8           0        0.270825    1.378142    0.251743
      3          8           0       -2.381253    1.580959   -0.628422
      4          1           0       -1.980733    2.440201   -0.503898
      5          8           0       -0.949803   -0.698557   -1.155710
      6          8           0       -2.046190    0.319552    1.308846
      7          1           0       -2.495513    1.052853    0.518435
      8          8           0        0.184769   -1.106703    0.984576
      9          6           0        0.008252   -2.304618    0.281356
     10          1           0        0.892468   -2.941042    0.386992
     11          1           0       -0.860896   -2.852311    0.670548
     12          6           0       -0.226493   -1.899294   -1.175443
     13          1           0        0.738891   -1.749332   -1.677746
     14          1           0       -0.786342   -2.662034   -1.726242
     15          6           0        1.342094    1.445012   -0.645145
     16          1           0        1.174067    0.801754   -1.517685
     17          1           0        1.426089    2.476492   -1.010922
     18          6           0        2.655171    1.063420    0.017423
     19          1           0        3.477352    1.293239   -0.668955
     20          1           0        2.780419    1.690601    0.911809
     21          8           0        2.751746   -0.299807    0.341967
     22          1           0        1.894714   -0.578850    0.714857
 ---------------------------------------------------------------------

 SCF Done:  E(RwB97XD) =  -900.172966861     A.U. after    1 cycles

 The electronic state is 1-A.
 Alpha  occ. eigenvalues --  -66.13857 -19.10473 -19.09254 -19.09137 -19.09046
 Alpha  occ. eigenvalues --  -19.02205 -19.01686 -10.20149 -10.20045 -10.19898
 Alpha  occ. eigenvalues --  -10.19869  -5.25348  -3.60009  -3.59891  -3.59629
 Alpha  occ. eigenvalues --   -1.00453  -0.98623  -0.96197  -0.93705  -0.89258
 Alpha  occ. eigenvalues --   -0.83301  -0.70440  -0.68866  -0.58454  -0.57100
 Alpha  occ. eigenvalues --   -0.48577  -0.46651  -0.45602  -0.44207  -0.43082
 Alpha  occ. eigenvalues --   -0.41699  -0.39900  -0.37868  -0.36532  -0.36437
 Alpha  occ. eigenvalues --   -0.35995  -0.31129  -0.29994  -0.28703  -0.27009
 Alpha  occ. eigenvalues --   -0.26211  -0.25251  -0.24640  -0.23409  -0.22549
 Alpha  occ. eigenvalues --   -0.21154  -0.19927  -0.18119  -0.16083
 Alpha virt. eigenvalues --    0.23621   0.24513   0.26273   0.26790   0.27586
 Alpha virt. eigenvalues --    0.28604   0.29602   0.30398   0.31968   0.32794
 Alpha virt. eigenvalues --    0.33354   0.34700   0.35118   0.36294   0.38159

 Mulliken charges:
               1
     1  Si   0.784134
     2  O   -0.412620
     3  O   -0.619100
     4  H    0.127878
     5  O   -0.380031
     6  O   -0.609117
     7  H    0.266136
     8  O   -0.483197
     9  C    0.043121
    10  H    0.041457
    11  H    0.050902
    12  C    0.046413
    13  H    0.034643
    14  H    0.038821
    15  C    0.030883
    16  H    0.056496
    17  H    0.042537
    18  C    0.088373
    19  H    0.026351
    20  H    0.035917
    21  O   -0.441250
    22  H    0.231254
 Sum of Mulliken charges =  -1.00000

 Dipole moment (field-independent basis, Debye):
    X=              4.9499    Y=             -1.5651    Z=             -1.8955  Tot=              5.5267
 Quadrupole moment (field-independent basis, Debye-Ang):
   XX=           -104.2133   YY=            -74.6501   ZZ=            -85.1764
   XY=              8.8328   XZ=             -2.3320   YZ=              1.5747

  Exact polarizability:     100.339       0.849     104.293      -1.769      -1.802      85.693
 Approx polarizability:     100.079       0.035     105.055      -2.229      -1.206      97.135

 ******    1 imaginary frequencies (negative Signs) ******

                      1                      2                      3
                      A                      A                      A
 Frequencies --  -1045.4972                45.2758                91.8463
 Red. masses --      1.1351                 5.9411                 3.1117
 Frc consts  --      0.7310                 0.0072                 0.0155
 IR Inten    --   1249.9615                 4.0321                 3.9530

                      4                      5                      6
                      A                      A                      A
 Frequencies --    101.0596               144.6699               158.1969
 Red. masses --      4.7688                 3.5821                 6.9037
 Frc consts  --      0.0287                 0.0442                 0.1018
 IR Inten    --      1.3962                 0.3616                 5.0835

                      7                      8                      9
                      A                      A                      A
 Frequencies --    180.2154               200.4325               205.2587
 Red. masses --      4.7583                 6.1122                 2.7392
 Frc consts  --      0.0911                 0.1447                 0.0680
 IR Inten    --     64.2896                58.3630                40.2181

                     10                     11                     12
                      A                      A                      A
 Frequencies --    261.6260               303.5137               327.9060
 Red. masses --      2.8729                 5.3017                 4.0804
 Frc consts  --      0.1159                 0.2878                 0.2585
 IR Inten    --     10.6872                52.2950                55.2519

                     13                     14                     15
                      A                      A                      A
 Frequencies --    381.7331               443.8617               474.3334
 Red. masses --      5.4246                 4.6593                 6.1265
 Frc consts  --      0.4657                 0.5408                 0.8121
 IR Inten    --     82.1081                58.1134                13.6994

                     16                     17                     18
                      A                      A                      A
 Frequencies --    511.1899               557.8672               595.8421
 Red. masses --      1.6225                 1.8159                 1.9693
 Frc consts  --      0.2498                 0.3330                 0.4119
 IR Inten    --    131.3519                66.2520               185.8051

                     19                     20                     21
                      A                      A                      A
 Frequencies --    605.1965               651.2622               699.9855
 Red. masses --      1.6516                 4.7816                 5.5731
 Frc consts  --      0.3564                 1.1949                 1.6089
 IR Inten    --     14.9923                27.4837                85.0463

                     22                     23                     24
                      A                      A                      A
 Frequencies --    710.2434               757.4140               798.9945
 Red. masses --      6.1299                 1.1181                 5.2176
 Frc consts  --      1.8219                 0.3779                 1.9625
 IR Inten    --    277.2282                56.0418               170.4764

                     25                     26                     27
                      A                      A                      A
 Frequencies --    898.2948               910.2250               937.5200
 Red. masses --      2.6087                 1.7468                 2.4726
 Frc consts  --      1.2403                 0.8527                 1.2805
 IR Inten    --     65.9793                39.4799                 7.3346

                     28                     29                     30
                      A                      A                      A
 Frequencies --    938.0546              1093.5754              1122.1715
 Red. masses --      2.0480                 9.0722                 2.7299
 Frc consts  --      1.0618                 6.3924                 2.0254
 IR Inten    --     50.7318               338.4961                 9.9691

                     31                     32                     33
                      A                      A                      A
 Frequencies --   1138.8892              1142.9489              1150.9992
 Red. masses --      4.5546                 3.9035                 3.1752
 Frc consts  --      3.4807                 3.0044                 2.4784
 IR Inten    --    108.7085                48.5859               116.6637

                     34                     35                     36
                      A                      A                      A
 Frequencies --   1169.0031              1186.6462              1265.6483
 Red. masses --      2.2433                 4.5427                 1.1415
 Frc consts  --      1.8062                 3.7688                 1.0773
 IR Inten    --     87.4746               252.2279                 2.1250

                     37                     38                     39
                      A                      A                      A
 Frequencies --   1269.2719              1273.1239              1309.5254
 Red. masses --      1.1611                 1.1143                 1.1543
 Frc consts  --      1.1021                 1.0641                 1.1663
 IR Inten    --     14.7794                 2.0185                24.8656

                     40                     41                     42
                      A                      A                      A
 Frequencies --   1380.4597              1397.6264              1400.0608
 Red. masses --      1.2909                 1.2722                 1.2975
 Frc consts  --      1.4494                 1.4642                 1.4985
 IR Inten    --      5.8209                 8.9995                 3.2335

                     43                     44                     45
                      A                      A                      A
 Frequencies --   1412.2483              1429.8365              1499.7133
 Red. masses --      1.3308                 1.0687                 1.0718
 Frc consts  --      1.5638                 1.2873                 1.4202
 IR Inten    --     19.7647                52.0102                 8.9343

                     46                     47                     48
                      A                      A                      A
 Frequencies --   1505.1543              1512.1128              1519.9694
 Red. masses --      1.1006                 1.1154                 1.1089
 Frc consts  --      1.4691                 1.5026                 1.5094
 IR Inten    --      2.9041                15.4388                 5.7368

                     49                     50                     51
                      A                      A                      A
 Frequencies --   1526.9111              1828.1888              2978.0488
 Red. masses --      1.1194                 1.0332                 1.0658
 Frc consts  --      1.5377                 2.0346                 5.5690
 IR Inten    --     22.3815               150.0801                85.1995

                     52                     53                     54
                      A                      A                      A
 Frequencies --   2983.2516              2986.8850              2994.0572
 Red. masses --      1.0722                 1.0596                 1.0604
 Frc consts  --      5.6222                 5.5695                 5.6007
 IR Inten    --     68.3839               100.3165                69.3622

                     55                     56                     57
                      A                      A                      A
 Frequencies --   3037.0250              3040.8937              3045.7177
 Red. masses --      1.1002                 1.0918                 1.0972
 Frc consts  --      5.9787                 5.9483                 5.9967
 IR Inten    --    118.4781                83.8180                94.9718

                     58                     59                     60
                      A                      A                      A
 Frequencies --   3053.1664              3549.1655              3929.0231
 Red. masses --      1.1027                 1.0690                 1.0659
 Frc consts  --      6.0565                 7.9336                 9.6944
 IR Inten    --     81.6672               598.9465                 1.2134

 - Thermochemistry -
 -------------------
 Temperature   298.150 Kelvin.  Pressure   1.00000 Atm.
 Atom     1 has atomic number 14 and mass  27.97693

 Molecular mass:   183.03249 amu.
 Principal axes and moments of inertia in atomic units:
                           1         2         3
     Eigenvalues --  1440.211822040.602932691.19005
           X            0.99942   0.03359  -0.00621
           Y           -0.03358   0.99943   0.00175
           Z            0.00627  -0.00154   0.99998
 This molecule is an asymmetric top.
 Rotational symmetry number  1.
 Warning -- assumption of classical behavior for rotation
           may cause significant error
 Rotational temperatures (Kelvin)      0.06014     0.04245     0.03218
 Rotational constants (GHZ):           1.25311     0.88442     0.67061
    1 imaginary frequencies ignored.
 Zero-point vibrational energy     442757.9 (Joules/Mol)
                                  105.82167 (Kcal/Mol)
 Warning -- explicit consideration of  18 degrees of freedom as
           vibrations may cause significant error
 Vibrational temperatures:     65.14   132.15   145.40   208.15   227.61
          (Kelvin)            259.29   288.38   295.32   376.42   436.69
                              471.78   549.23   638.62   682.46   735.49
                              802.65   857.28   870.74   937.02  1007.12
                             1021.88  1089.75  1149.57  1292.45  1309.61
                             1348.88  1349.65  1573.41  1614.55  1638.61
                             1644.45  1656.03  1681.93  1707.32  1820.99
                             1826.20  1831.74  1884.11  1986.17  2010.87
                             2014.38  2031.91  2057.22  2157.75  2165.58
                             2175.59  2186.90  2196.88  2630.36  4284.75
                             4292.23  4297.46  4307.78  4369.60  4375.17
                             4382.11  4392.83  5106.46  5652.99

 Zero-point correction=                           0.168638 (Hartree/Particle)
 Thermal correction to Energy=                    0.180601
 Thermal correction to Enthalpy=                  0.181545
 Thermal correction to Gibbs Free Energy=         0.130512
 Sum of electronic and zero-point Energies=           -900.004329
 Sum of electronic and thermal Energies=              -899.992366
 Sum of electronic and thermal Enthalpies=            -899.991422
 Sum of electronic and thermal Free Energies=         -900.042455

                     E (Thermal)             CV                S
                      KCal/Mol        Cal/Mol-Kelvin    Cal/Mol-Kelvin
 Total                  113.329             43.903            107.409
 Electronic               0.000              0.000              0.000
 Translational            0.889              2.981             41.520
 Rotational               0.889              2.981             30.448
 Vibrational            111.551             37.941             35.440
 Vibration     1          0.595              1.979              5.014
 Vibration     2          0.602              1.955              3.620
 Vibration     3          0.604              1.948              3.434
 Vibration     4          0.616              1.908              2.741
 Vibration     5          0.621              1.893              2.571
 Vibration     6          0.629              1.867              2.326
 Vibration     7          0.638              1.839              2.129
 Vibration     8          0.640              1.832              2.085
 Vibration     9          0.669              1.743              1.651
 Vibration    10          0.695              1.667              1.397
 Vibration    11          0.711              1.620              1.270
 Vibration    12          0.751              1.509              1.032
 Vibration    13          0.803              1.374              0.815
 Vibration    14          0.831              1.307              0.726
 Vibration    15          0.866              1.225              0.631
 Vibration    16          0.913              1.123              0.528
 Vibration    17          0.954              1.041              0.457
 Vibration    18          0.964              1.021              0.441

 Optimization completed.
    -- Stationary point found.
 Normal termination of Gaussian 16 at Thu Mar 21 18:02:53 2024.
