 Gaussian 16, Revision C.01,
 Gaussian 16:  ES64L-G16RevC.01  3-Jul-2019

 ------------------------------------------------------------------
 # opt=(calcall,ts,noeigen) freq wb97xd/def2tzvpp geom=connectivity
 ------------------------------------------------------------------

 ---------------------------------------------------------------------
 EG attack on PL2 extend attacking bond length attacking OH protonated
 ---------------------------------------------------------------------
 Symbolic Z-matrix:
 Charge = -2 Multiplicity = 1

 SCF Done:  E(RwB97XD) =  -1053.33029560     A.U. after   16 cycles
 SCF Done:  E(RwB97XD) =  -1053.33007995     A.U. after   12 cycles
 SCF Done:  E(RwB97XD) =  -1053.33008212     A.U. after   12 cycles
 SCF Done:  E(RwB97XD) =  -1053.33008246     A.U. after    9 cycles
 Optimization completed.
    -- Stationary point found.
 ******    1 imaginary frequencies (negative Signs) ******
    1 imaginary frequencies ignored.
 Normal termination of Gaussian 16 at Sun Feb 18 15:10:54 2024.

 ----------------------------------------------------------------------
 #N Geom=AllCheck Guess=TCheck SCRF=Check GenChk RwB97XD/def2TZVPP Freq
 ----------------------------------------------------------------------

 Structure from the checkpoint file:  "TSopt_EG_DeprotonatedOH_AttackPL2.chk"
 ---------------------------------------------------------------------
 EG attack on PL2 extend attacking bond length attacking OH protonated
 ---------------------------------------------------------------------
 Charge = -2 Multiplicity = 1

                         Standard orientation:
 ---------------------------------------------------------------------
 Center     Atomic      Atomic             Coordinates (Angstroms)
 Number     Number       Type             X           Y           Z
 ---------------------------------------------------------------------
      1         14           0       -1.028746    0.391526   -0.016025
      2          8           0       -0.355463    1.491822    1.190372
      3          8           0       -0.014193    1.142518   -1.223019
      4          8           0       -1.375564   -0.855629   -1.179666
      5          8           0       -1.554506   -0.671285    1.265943
      6          8           0        1.092201   -0.920951    0.414957
      7          8           0       -2.492304    1.298441   -0.234828
      8          1           0       -2.487974    1.935529    0.476097
      9          6           0       -2.024886   -1.943179   -0.636570
     10          1           0       -3.123929   -1.847633   -0.751161
     11          1           0       -1.721000   -2.874946   -1.143677
     12          6           0       -1.666344   -1.983597    0.855090
     13          1           0       -2.448074   -2.510531    1.431546
     14          1           0       -0.708933   -2.509337    0.988857
     15          6           0        0.785804    2.132822    0.746356
     16          1           0        0.887542    3.126282    1.218436
     17          1           0        1.682553    1.542225    0.981775
     18          6           0        0.643960    2.264829   -0.775070
     19          1           0        0.068436    3.184831   -1.012864
     20          1           0        1.630738    2.362102   -1.258105
     21          6           0        1.809842   -1.295346   -0.671651
     22          1           0        1.372589   -0.960115   -1.628570
     23          1           0        1.927206   -2.410432   -0.751611
     24          6           0        3.240512   -0.699110   -0.533854
     25          1           0        3.994642   -1.281658   -1.085492
     26          1           0        3.246274    0.331611   -0.926438
     27          8           0        3.544154   -0.698063    0.842720
     28          1           0        2.594456   -0.722640    1.167927
 ---------------------------------------------------------------------

 SCF Done:  E(RwB97XD) =  -1053.33008246     A.U. after    1 cycles

 The electronic state is 1-A.
 Alpha  occ. eigenvalues --  -65.99482 -18.94882 -18.91541 -18.91537 -18.91485
 Alpha  occ. eigenvalues --  -18.91010 -18.90928 -18.85599 -10.04515 -10.04416
 Alpha  occ. eigenvalues --  -10.04175 -10.03790 -10.03521 -10.01250  -5.10260
 Alpha  occ. eigenvalues --   -3.44936  -3.44783  -3.44677  -0.83700  -0.83321
 Alpha  occ. eigenvalues --   -0.81515  -0.77354  -0.76016  -0.75711  -0.72247
 Alpha  occ. eigenvalues --   -0.53585  -0.51575  -0.50927  -0.41676  -0.39378
 Alpha  occ. eigenvalues --   -0.38274  -0.32906  -0.29939  -0.29684  -0.28193
 Alpha  occ. eigenvalues --   -0.27922  -0.27697  -0.26290  -0.24714  -0.24110
 Alpha  occ. eigenvalues --   -0.22955  -0.21753  -0.20250  -0.19622  -0.18207
 Alpha  occ. eigenvalues --   -0.17074  -0.15043  -0.13805  -0.12080  -0.10356
 Alpha  occ. eigenvalues --   -0.09866  -0.09535  -0.08012  -0.07568  -0.07418
 Alpha  occ. eigenvalues --   -0.06533  -0.04666  -0.03771  -0.02305  -0.00280
 Alpha  occ. eigenvalues --    0.01291
 Alpha virt. eigenvalues --    0.35929   0.36455   0.37414   0.38925   0.39465
 Alpha virt. eigenvalues --    0.40194   0.40808   0.41210   0.42737   0.43489
 Alpha virt. eigenvalues --    0.44573   0.45765   0.46765   0.47849   0.48237

 Mulliken charges:
               1
     1  Si   0.880368
     2  O   -0.499766
     3  O   -0.445449
     4  O   -0.480605
     5  O   -0.453022
     6  O   -0.698548
     7  O   -0.514068
     8  H    0.121661
     9  C    0.113173
    10  H   -0.022176
    11  H   -0.026066
    12  C    0.093271
    13  H   -0.038405
    14  H    0.012893
    15  C    0.074352
    16  H   -0.037347
    17  H    0.025554
    18  C    0.100889
    19  H   -0.028233
    20  H   -0.016738
    21  C    0.142457
    22  H   -0.009300
    23  H   -0.079434
    24  C    0.091375
    25  H   -0.019254
    26  H   -0.000894
    27  O   -0.511710
    28  H    0.225021
 Sum of Mulliken charges =  -2.00000

 Dipole moment (field-independent basis, Debye):
    X=             -0.6457    Y=              0.9310    Z=             -0.7227  Tot=              1.3439
 Quadrupole moment (field-independent basis, Debye-Ang):
   XX=           -146.7924   YY=           -114.1334   ZZ=           -114.7111
   XY=              7.0853   XZ=             -7.1306   YZ=              2.3883

  Exact polarizability:     144.670       5.810     145.120      -3.667       2.388     115.692
 Approx polarizability:     140.451       3.260     143.480      -3.625       3.041     134.239

 ******    1 imaginary frequencies (negative Signs) ******

                      1                      2                      3
                      A                      A                      A
 Frequencies --   -114.6538                37.7816                45.4144
 Red. masses --      8.7136                 5.3706                 4.5353
 Frc consts  --      0.0675                 0.0045                 0.0055
 IR Inten    --     53.8335                 0.6140                 0.3338

                      4                      5                      6
                      A                      A                      A
 Frequencies --     93.8185                97.3846               106.9613
 Red. masses --      3.3935                 2.8402                 3.3759
 Frc consts  --      0.0176                 0.0159                 0.0228
 IR Inten    --      0.8280                11.5749                 4.2604

                      7                      8                      9
                      A                      A                      A
 Frequencies --    145.2728               155.0840               174.2841
 Red. masses --      3.9092                 3.9281                 3.7893
 Frc consts  --      0.0486                 0.0557                 0.0678
 IR Inten    --      6.1798                 6.1655                 2.7765

                     10                     11                     12
                      A                      A                      A
 Frequencies --    214.2370               240.5348               245.4041
 Red. masses --      2.4366                 1.6190                 2.3800
 Frc consts  --      0.0659                 0.0552                 0.0844
 IR Inten    --      3.0533                23.1254                26.9016

                     13                     14                     15
                      A                      A                      A
 Frequencies --    291.0513               316.7634               335.3758
 Red. masses --      2.2697                 4.0397                 5.1200
 Frc consts  --      0.1133                 0.2388                 0.3393
 IR Inten    --     13.1043                11.3443                12.0106

                     16                     17                     18
                      A                      A                      A
 Frequencies --    349.0878               367.0620               396.6150
 Red. masses --      5.6885                 5.3233                 5.5276
 Frc consts  --      0.4084                 0.4226                 0.5123
 IR Inten    --     49.4999                44.6363                10.5500

                     19                     20                     21
                      A                      A                      A
 Frequencies --    433.8145               462.1387               587.1123
 Red. masses --      7.4637                 8.5860                11.5102
 Frc consts  --      0.8276                 1.0804                 2.3376
 IR Inten    --      0.1553                41.3732                31.6521

                     22                     23                     24
                      A                      A                      A
 Frequencies --    612.9106               621.7715               640.9350
 Red. masses --      2.4670                 3.4043                 8.3640
 Frc consts  --      0.5460                 0.7754                 2.0244
 IR Inten    --     12.9335                24.3693                21.3092

                     25                     26                     27
                      A                      A                      A
 Frequencies --    644.3465               679.6796               709.4552
 Red. masses --      2.5528                 8.7615                 4.5014
 Frc consts  --      0.6245                 2.3847                 1.3349
 IR Inten    --      1.0639               250.5445               219.5269

                     28                     29                     30
                      A                      A                      A
 Frequencies --    744.5296               860.7567               892.0204
 Red. masses --      9.9946                 2.3170                 1.7472
 Frc consts  --      3.2642                 1.0114                 0.8191
 IR Inten    --    472.3074                 9.5596                27.1859

                     31                     32                     33
                      A                      A                      A
 Frequencies --    911.2202               924.7949               926.8950
 Red. masses --      1.7067                 1.8312                 2.2658
 Frc consts  --      0.8349                 0.9228                 1.1469
 IR Inten    --      2.8867                58.2606                12.8902

                     34                     35                     36
                      A                      A                      A
 Frequencies --    929.3434               942.8662               988.1012
 Red. masses --      2.3644                 1.1285                 1.2435
 Frc consts  --      1.2032                 0.5911                 0.7153
 IR Inten    --      5.7102                71.4096               188.7868

                     37                     38                     39
                      A                      A                      A
 Frequencies --   1095.4389              1142.8062              1148.7898
 Red. masses --      4.3748                 2.5743                 2.2053
 Frc consts  --      3.0930                 1.9809                 1.7147
 IR Inten    --     94.4984               191.2015                16.2805

                     40                     41                     42
                      A                      A                      A
 Frequencies --   1150.8582              1167.5547              1171.9661
 Red. masses --      2.1112                 4.4858                 2.4082
 Frc consts  --      1.6475                 3.6029                 1.9488
 IR Inten    --     17.0400                10.8618                96.3863

                     43                     44                     45
                      A                      A                      A
 Frequencies --   1185.2867              1190.9717              1208.9994
 Red. masses --      3.1991                 3.6634                 2.8347
 Frc consts  --      2.6480                 3.0615                 2.4413
 IR Inten    --    290.6768                78.6791                 3.2122

                     46                     47                     48
                      A                      A                      A
 Frequencies --   1214.1959              1254.4595              1255.6930
 Red. masses --      1.6223                 1.1429                 1.1912
 Frc consts  --      1.4092                 1.0596                 1.1066
 IR Inten    --     44.2176                 3.6272                28.4945

                     49                     50                     51
                      A                      A                      A
 Frequencies --   1259.2506              1261.0076              1266.6037
 Red. masses --      1.2754                 1.2117                 1.2383
 Frc consts  --      1.1916                 1.1352                 1.1704
 IR Inten    --      3.5365                 2.4920                 4.3851

                     52                     53                     54
                      A                      A                      A
 Frequencies --   1324.1826              1371.2269              1374.9468
 Red. masses --      1.2166                 1.2533                 1.3102
 Frc consts  --      1.2569                 1.3884                 1.4593
 IR Inten    --     15.1843                18.1733                 2.6366

                     55                     56                     57
                      A                      A                      A
 Frequencies --   1384.5638              1395.5722              1400.0417
 Red. masses --      1.3482                 1.2776                 1.2853
 Frc consts  --      1.5227                 1.4660                 1.4843
 IR Inten    --     16.6380                14.0472                 7.1341

                     58                     59                     60
                      A                      A                      A
 Frequencies --   1480.2811              1482.6421              1496.6640
 Red. masses --      1.0972                 1.1010                 1.0927
 Frc consts  --      1.4166                 1.4260                 1.4422
 IR Inten    --     14.2827                28.6916                 3.8986

                     61                     62                     63
                      A                      A                      A
 Frequencies --   1501.4040              1505.9106              1509.3359
 Red. masses --      1.0941                 1.0857                 1.1045
 Frc consts  --      1.4531                 1.4506                 1.4824
 IR Inten    --      3.4485                 8.3564                10.9914

                     64                     65                     66
                      A                      A                      A
 Frequencies --   1535.4535              2668.1262              2826.7158
 Red. masses --      1.1737                 1.0722                 1.0747
 Frc consts  --      1.6304                 4.4971                 5.0595
 IR Inten    --    177.6260               416.4944               221.1987

                     67                     68                     69
                      A                      A                      A
 Frequencies --   2847.2785              2901.7002              2908.9177
 Red. masses --      1.0746                 1.0707                 1.0723
 Frc consts  --      5.1327                 5.3118                 5.3462
 IR Inten    --    192.5938               423.2373               304.8322

                     70                     71                     72
                      A                      A                      A
 Frequencies --   2911.9728              2920.1531              2930.2512
 Red. masses --      1.0648                 1.0788                 1.0791
 Frc consts  --      5.3196                 5.4201                 5.4591
 IR Inten    --     67.1169               229.5412               118.4858

                     73                     74                     75
                      A                      A                      A
 Frequencies --   2937.4434              2956.6937              2972.8112
 Red. masses --      1.0698                 1.1013                 1.0899
 Frc consts  --      5.4387                 5.6724                 5.6748
 IR Inten    --    227.6164               236.8963               127.7038

                     76                     77                     78
                      A                      A                      A
 Frequencies --   2998.9578              3089.5181              3952.8186
 Red. masses --      1.0871                 1.0644                 1.0648
 Frc consts  --      5.7604                 5.9859                 9.8020
 IR Inten    --     88.5153               452.5287                 5.6867

 - Thermochemistry -
 -------------------
 Temperature   298.150 Kelvin.  Pressure   1.00000 Atm.
 Atom     1 has atomic number 14 and mass  27.97693

 Molecular mass:   226.05088 amu.
 Principal axes and moments of inertia in atomic units:
                           1         2         3
     Eigenvalues --  2108.031663264.349344210.93049
           X            0.99929   0.03477  -0.01420
           Y           -0.03466   0.99937   0.00794
           Z            0.01447  -0.00745   0.99987
 This molecule is an asymmetric top.
 Rotational symmetry number  1.
 Warning -- assumption of classical behavior for rotation
           may cause significant error
 Rotational temperatures (Kelvin)      0.04109     0.02653     0.02057
 Rotational constants (GHZ):           0.85613     0.55286     0.42858
    1 imaginary frequencies ignored.
 Zero-point vibrational energy     572319.1 (Joules/Mol)
                                  136.78756 (Kcal/Mol)
 Warning -- explicit consideration of  21 degrees of freedom as
           vibrations may cause significant error
 Vibrational temperatures:     54.36    65.34   134.98   140.11   153.89
          (Kelvin)            209.02   223.13   250.76   308.24   346.08
                              353.08   418.76   455.75   482.53   502.26
                              528.12   570.64   624.16   664.91   844.72
                              881.84   894.59   922.16   927.07   977.91
                             1020.75  1071.21  1238.44  1283.42  1311.04
                             1330.57  1333.60  1337.12  1356.57  1421.66
                             1576.09  1644.24  1652.85  1655.83  1679.85
                             1686.20  1705.36  1713.54  1739.48  1746.96
                             1804.89  1806.66  1811.78  1814.31  1822.36
                             1905.20  1972.89  1978.24  1992.08  2007.92
                             2014.35  2129.79  2133.19  2153.37  2160.19
                             2166.67  2171.60  2209.18  3838.84  4067.01
                             4096.60  4174.90  4185.28  4189.68  4201.45
                             4215.98  4226.33  4254.02  4277.21  4314.83
                             4445.13  5687.22

 Zero-point correction=                           0.217985 (Hartree/Particle)
 Thermal correction to Energy=                    0.232722
 Thermal correction to Enthalpy=                  0.233666
 Thermal correction to Gibbs Free Energy=         0.175850
 Sum of electronic and zero-point Energies=          -1053.112098
 Sum of electronic and thermal Energies=             -1053.097361
 Sum of electronic and thermal Enthalpies=           -1053.096417
 Sum of electronic and thermal Free Energies=        -1053.154233

                     E (Thermal)             CV                S
                      KCal/Mol        Cal/Mol-Kelvin    Cal/Mol-Kelvin
 Total                  146.035             54.567            121.684
 Electronic               0.000              0.000              0.000
 Translational            0.889              2.981             42.149
 Rotational               0.889              2.981             31.739
 Vibrational            144.258             48.605             47.796
 Vibration     1          0.594              1.982              5.372
 Vibration     2          0.595              1.979              5.008
 Vibration     3          0.603              1.954              3.579
 Vibration     4          0.603              1.951              3.506
 Vibration     5          0.606              1.944              3.323
 Vibration     6          0.617              1.908              2.733
 Vibration     7          0.620              1.897              2.609
 Vibration     8          0.627              1.874              2.389
 Vibration     9          0.644              1.819              2.007
 Vibration    10          0.658              1.778              1.799
 Vibration    11          0.660              1.770              1.763
 Vibration    12          0.687              1.690              1.468
 Vibration    13          0.704              1.642              1.327
 Vibration    14          0.716              1.605              1.234
 Vibration    15          0.726              1.577              1.170
 Vibration    16          0.740              1.540              1.092
 Vibration    17          0.763              1.477              0.975
 Vibration    18          0.795              1.397              0.846
 Vibration    19          0.820              1.334              0.760
 Vibration    20          0.944              1.059              0.472
 Vibration    21          0.972              1.005              0.428

 Optimization completed.
    -- Stationary point found.
 Normal termination of Gaussian 16 at Sun Feb 18 18:46:04 2024.
