 Gaussian 16, Revision C.01,
 Gaussian 16:  ES64L-G16RevC.01  3-Jul-2019

 ----------------------------------------------------------------------
 # opt=(calcall,ts,noeigen) freq=noraman wb97xd/def2tzvpp geom=connecti
 vity
 ----------------------------------------------------------------------

 ---------------------------------------------------------------------
 TS opt EGOH attack with ligand deprotonated on silicate equatorial OH
 ---------------------------------------------------------------------
 Symbolic Z-matrix:
 Charge = -1 Multiplicity = 1

 SCF Done:  E(RwB97XD) =  -822.723387897     A.U. after   15 cycles
 SCF Done:  E(RwB97XD) =  -822.729274531     A.U. after   13 cycles
 SCF Done:  E(RwB97XD) =  -822.728953332     A.U. after   13 cycles
 SCF Done:  E(RwB97XD) =  -822.727833161     A.U. after   13 cycles
 SCF Done:  E(RwB97XD) =  -822.727416997     A.U. after   13 cycles
 SCF Done:  E(RwB97XD) =  -822.728315619     A.U. after   13 cycles
 SCF Done:  E(RwB97XD) =  -822.728980594     A.U. after   13 cycles
 SCF Done:  E(RwB97XD) =  -822.729092917     A.U. after   12 cycles
 SCF Done:  E(RwB97XD) =  -822.729097296     A.U. after    9 cycles
 SCF Done:  E(RwB97XD) =  -822.729097238     A.U. after    7 cycles
 Optimization completed.
    -- Stationary point found.
 ******    1 imaginary frequencies (negative Signs) ******
    1 imaginary frequencies ignored.
 Normal termination of Gaussian 16 at Wed Oct 11 16:08:05 2023.

 ----------------------------------------------------------------------
 #N Geom=AllCheck Guess=TCheck SCRF=Check GenChk RwB97XD/def2TZVPP Freq
 ----------------------------------------------------------------------

 Structure from the checkpoint file:  "DeprotonatedSilicateTSAttempt.chk"
 ---------------------------------------------------------------------
 TS opt EGOH attack with ligand deprotonated on silicate equatorial OH
 ---------------------------------------------------------------------
 Charge = -1 Multiplicity = 1

                         Standard orientation:
 ---------------------------------------------------------------------
 Center     Atomic      Atomic             Coordinates (Angstroms)
 Number     Number       Type             X           Y           Z
 ---------------------------------------------------------------------
      1         14           0        0.962759   -0.494704   -0.138657
      2          8           0        1.730694   -1.646043   -0.788288
      3          8           0        2.240829    1.685070    0.388035
      4          1           0        3.140954    1.614115    0.078261
      5          8           0        0.442272    0.811674   -1.013651
      6          1           0        1.159115    1.460286   -0.633262
      7          8           0        0.868921   -0.221416    1.482436
      8          1           0        1.449526    0.569958    1.546682
      9          6           0       -1.970778   -0.736886    0.700955
     10          1           0       -1.658919   -0.926017    1.725089
     11          1           0       -2.885224   -1.294306    0.481811
     12          6           0       -2.169642    0.753745    0.455855
     13          1           0       -1.360336    1.303038    0.941928
     14          1           0       -3.118074    1.056557    0.909864
     15          8           0       -0.934378   -1.279072   -0.129098
     16          8           0       -2.210133    1.037796   -0.918771
     17          1           0       -1.262719    1.117149   -1.168515
     18          1           0       -1.206059   -1.180150   -1.046824
 ---------------------------------------------------------------------

 SCF Done:  E(RwB97XD) =  -822.729097238     A.U. after    1 cycles

 The electronic state is 1-A.
 Alpha  occ. eigenvalues --  -66.11717 -19.18807 -19.11857 -19.06815 -19.06273
 Alpha  occ. eigenvalues --  -19.00100 -18.98743 -10.23313 -10.21461  -5.23553
 Alpha  occ. eigenvalues --   -3.58478  -3.57898  -3.57649  -1.06332  -0.99845
 Alpha  occ. eigenvalues --   -0.93856  -0.90892  -0.82600  -0.80444  -0.73617
 Alpha  occ. eigenvalues --   -0.61536  -0.52932  -0.49429  -0.46657  -0.45174
 Alpha  occ. eigenvalues --   -0.40666  -0.39969  -0.38755  -0.37427  -0.36557
 Alpha  occ. eigenvalues --   -0.31531  -0.30723  -0.29039  -0.28506  -0.27270
 Alpha  occ. eigenvalues --   -0.24186  -0.23528  -0.22570  -0.18301  -0.17196
 Alpha  occ. eigenvalues --   -0.16466  -0.16230
 Alpha virt. eigenvalues --    0.21712   0.23692   0.25559   0.27664   0.28642
 Alpha virt. eigenvalues --    0.30366   0.30748   0.32742   0.33700   0.35068
 Alpha virt. eigenvalues --    0.36500   0.38023   0.38804   0.39266   0.40771

 Mulliken charges:
               1
     1  Si   0.752717
     2  O   -0.694977
     3  O   -0.778260
     4  H    0.142413
     5  O   -0.556389
     6  H    0.267932
     7  O   -0.508144
     8  H    0.236728
     9  C    0.020602
    10  H    0.079402
    11  H    0.079250
    12  C    0.048802
    13  H    0.093683
    14  H    0.047994
    15  O   -0.191398
    16  O   -0.460143
    17  H    0.241970
    18  H    0.177816
 Sum of Mulliken charges =  -1.00000

 Dipole moment (field-independent basis, Debye):
    X=             -7.4346    Y=             -0.0736    Z=              1.5312  Tot=              7.5910
 Quadrupole moment (field-independent basis, Debye-Ang):
   XX=            -78.2983   YY=            -80.8035   ZZ=            -69.4095
   XY=              7.7617   XZ=             -2.7239   YZ=             -1.7835

  Exact polarizability:      89.224       2.156      76.170      -2.001       1.328      71.564
 Approx polarizability:      85.282       0.921      79.557      -1.119       1.905      80.160

 ******    1 imaginary frequencies (negative Signs) ******

                      1                      2                      3
                      A                      A                      A
 Frequencies --   -224.8973                69.1983               101.9292
 Red. masses --      7.0074                 6.7334                 3.8357
 Frc consts  --      0.2088                 0.0190                 0.0235
 IR Inten    --     39.2250                 0.9088                 6.8844

                      4                      5                      6
                      A                      A                      A
 Frequencies --    149.3467               154.8574               190.0774
 Red. masses --      4.1670                 3.8037                 5.2899
 Frc consts  --      0.0548                 0.0537                 0.1126
 IR Inten    --     13.3772                34.1880                15.4197

                      7                      8                      9
                      A                      A                      A
 Frequencies --    206.4615               243.8837               262.6699
 Red. masses --      4.9664                 3.5066                 4.0432
 Frc consts  --      0.1247                 0.1229                 0.1644
 IR Inten    --     56.4012                 6.8606               115.2924

                     10                     11                     12
                      A                      A                      A
 Frequencies --    276.6279               336.1056               372.9389
 Red. masses --      3.9355                 3.3322                 3.8396
 Frc consts  --      0.1774                 0.2218                 0.3146
 IR Inten    --     34.7179                49.2396                11.8126

                     13                     14                     15
                      A                      A                      A
 Frequencies --    379.9609               423.2927               442.5284
 Red. masses --      3.1798                 3.5903                 1.8323
 Frc consts  --      0.2705                 0.3790                 0.2114
 IR Inten    --     34.6348                30.6968                46.8458

                     16                     17                     18
                      A                      A                      A
 Frequencies --    473.7981               561.5706               624.0647
 Red. masses --      1.7013                 2.1090                 1.4557
 Frc consts  --      0.2250                 0.3919                 0.3340
 IR Inten    --     64.2412                11.0032               140.1621

                     19                     20                     21
                      A                      A                      A
 Frequencies --    766.2149               832.3261               866.0313
 Red. masses --     10.0026                 1.1289                 3.5662
 Frc consts  --      3.4599                 0.4608                 1.5759
 IR Inten    --     38.7507                70.0574                44.1545

                     22                     23                     24
                      A                      A                      A
 Frequencies --    876.4800               892.5774               929.6339
 Red. masses --      1.9748                 1.8713                 1.2505
 Frc consts  --      0.8938                 0.8784                 0.6367
 IR Inten    --     30.0543                35.5932                32.5114

                     25                     26                     27
                      A                      A                      A
 Frequencies --   1074.6601              1099.6716              1112.1101
 Red. masses --      3.2883                 1.7491                 1.3585
 Frc consts  --      2.2375                 1.2462                 0.9899
 IR Inten    --    123.9269                25.4406               367.9649

                     28                     29                     30
                      A                      A                      A
 Frequencies --   1138.7338              1151.6257              1231.3945
 Red. masses --      3.0911                 1.1033                 3.1848
 Frc consts  --      2.3616                 0.8621                 2.8453
 IR Inten    --     86.8732               104.1980               254.3378

                     31                     32                     33
                      A                      A                      A
 Frequencies --   1234.6399              1262.8255              1279.8878
 Red. masses --      1.2149                 1.6128                 1.1886
 Frc consts  --      1.0911                 1.5154                 1.1471
 IR Inten    --    204.6923               303.8482                 4.3402

                     34                     35                     36
                      A                      A                      A
 Frequencies --   1389.2070              1412.8012              1429.8655
 Red. masses --      1.2200                 1.2070                 1.3131
 Frc consts  --      1.3873                 1.4194                 1.5818
 IR Inten    --     11.2122                17.4266                24.7272

                     37                     38                     39
                      A                      A                      A
 Frequencies --   1492.7267              1510.7338              1514.0552
 Red. masses --      1.0906                 1.1685                 1.0731
 Frc consts  --      1.4318                 1.5713                 1.4494
 IR Inten    --      7.9109                52.9181                10.5380

                     40                     41                     42
                      A                      A                      A
 Frequencies --   2521.9391              3037.8975              3053.1979
 Red. masses --      1.0687                 1.0627                 1.0678
 Frc consts  --      4.0046                 5.7783                 5.8645
 IR Inten    --   1092.8752                64.5063                77.9659

                     43                     44                     45
                      A                      A                      A
 Frequencies --   3101.6145              3158.5894              3421.9938
 Red. masses --      1.1015                 1.0989                 1.0680
 Frc consts  --      6.2435                 6.4597                 7.3682
 IR Inten    --     35.1328                11.5106               608.3510

                     46                     47                     48
                      A                      A                      A
 Frequencies --   3462.4806              3845.0932              3948.3247
 Red. masses --      1.0646                 1.0655                 1.0666
 Frc consts  --      7.5199                 9.2813                 9.7964
 IR Inten    --    470.5887                65.2801                 0.0676

 - Thermochemistry -
 -------------------
 Temperature   298.150 Kelvin.  Pressure   1.00000 Atm.
 Atom     1 has atomic number 14 and mass  27.97693

 Molecular mass:   157.01684 amu.
 Principal axes and moments of inertia in atomic units:
                           1         2         3
     Eigenvalues --   975.812931788.242402072.75608
           X            0.99936   0.03341  -0.01285
           Y           -0.03342   0.99944  -0.00062
           Z            0.01282   0.00105   0.99992
 This molecule is an asymmetric top.
 Rotational symmetry number  1.
 Warning -- assumption of classical behavior for rotation
           may cause significant error
 Rotational temperatures (Kelvin)      0.08876     0.04844     0.04179
 Rotational constants (GHZ):           1.84947     1.00923     0.87070
    1 imaginary frequencies ignored.
 Zero-point vibrational energy     354804.3 (Joules/Mol)
                                   84.80026 (Kcal/Mol)
 Warning -- explicit consideration of  16 degrees of freedom as
           vibrations may cause significant error
 Vibrational temperatures:     99.56   146.65   214.88   222.81   273.48
          (Kelvin)            297.05   350.89   377.92   398.01   483.58
                              536.58   546.68   609.02   636.70   681.69
                              807.97   897.89  1102.41  1197.53  1246.03
                             1261.06  1284.22  1337.54  1546.20  1582.18
                             1600.08  1638.38  1656.93  1771.70  1776.37
                             1816.92  1841.47  1998.76  2032.71  2057.26
                             2147.70  2173.61  2178.39  3628.51  4370.86
                             4392.87  4462.53  4544.51  4923.49  4981.74
                             5532.23  5680.76

 Zero-point correction=                           0.135138 (Hartree/Particle)
 Thermal correction to Energy=                    0.146083
 Thermal correction to Enthalpy=                  0.147027
 Thermal correction to Gibbs Free Energy=         0.098989
 Sum of electronic and zero-point Energies=           -822.593959
 Sum of electronic and thermal Energies=              -822.583015
 Sum of electronic and thermal Enthalpies=            -822.582071
 Sum of electronic and thermal Free Energies=         -822.630108

                     E (Thermal)             CV                S
                      KCal/Mol        Cal/Mol-Kelvin    Cal/Mol-Kelvin
 Total                   91.668             39.360            101.103
 Electronic               0.000              0.000              0.000
 Translational            0.889              2.981             41.063
 Rotational               0.889              2.981             29.671
 Vibrational             89.891             33.398             30.370
 Vibration     1          0.598              1.969              4.176
 Vibration     2          0.604              1.948              3.417
 Vibration     3          0.618              1.903              2.681
 Vibration     4          0.620              1.897              2.612
 Vibration     5          0.633              1.854              2.227
 Vibration     6          0.641              1.831              2.075
 Vibration     7          0.659              1.773              1.774
 Vibration     8          0.670              1.741              1.644
 Vibration     9          0.678              1.717              1.554
 Vibration    10          0.717              1.603              1.231
 Vibration    11          0.744              1.528              1.068
 Vibration    12          0.750              1.513              1.039
 Vibration    13          0.785              1.420              0.881
 Vibration    14          0.802              1.377              0.819
 Vibration    15          0.831              1.308              0.727
 Vibration    16          0.917              1.114              0.521

 Optimization completed.
    -- Stationary point found.
 Normal termination of Gaussian 16 at Wed Oct 11 16:22:08 2023.
