 Gaussian 16, Revision C.01,
 Gaussian 16:  ES64L-G16RevC.01  3-Jul-2019

 -------------------------------------------------------------
 # opt=(calcall,ts,noeigen) wb97xd/def2tzvpp geom=connectivity
 -------------------------------------------------------------

 ------------------------------------------------------
 TS attempt PbiL1 collapse to QbiL from scan energy max
 ------------------------------------------------------
 Symbolic Z-matrix:
 Charge = -1 Multiplicity = 1

 SCF Done:  E(RwB97XD) =  -746.314388326     A.U. after   14 cycles
 SCF Done:  E(RwB97XD) =  -746.313201013     A.U. after   12 cycles
 SCF Done:  E(RwB97XD) =  -746.313796907     A.U. after   12 cycles
 SCF Done:  E(RwB97XD) =  -746.315247745     A.U. after   12 cycles
 SCF Done:  E(RwB97XD) =  -746.315364631     A.U. after   12 cycles
 SCF Done:  E(RwB97XD) =  -746.315366226     A.U. after    8 cycles
 Optimization completed.
    -- Stationary point found.

                         Standard orientation:
 ---------------------------------------------------------------------
 Center     Atomic      Atomic             Coordinates (Angstroms)
 Number     Number       Type             X           Y           Z
 ---------------------------------------------------------------------
      1         14           0        0.375945   -0.237067    0.055865
      2          8           0        0.955749   -0.937408   -1.351984
      3          1           0        0.308222   -1.573520   -1.649303
      4          8           0        2.314618    0.980917   -0.009688
      5          1           0        2.845876    0.467634   -0.616968
      6          8           0       -0.431385    1.224156   -0.183820
      7          8           0        1.182147   -0.482054    1.411022
      8          1           0        2.012103    0.252906    0.923104
      9          8           0       -1.105597   -1.126646    0.143375
     10          6           0       -2.173411   -0.262062    0.373480
     11          1           0       -3.105729   -0.682673   -0.023380
     12          1           0       -2.313293   -0.090445    1.451928
     13          6           0       -1.811252    1.055552   -0.319790
     14          1           0       -2.086899    1.005150   -1.384680
     15          1           0       -2.339790    1.907221    0.123802
 ---------------------------------------------------------------------

 The electronic state is 1-A.
 Alpha  occ. eigenvalues --  -66.11875 -19.07330 -19.07226 -19.06842 -19.01671
 Alpha  occ. eigenvalues --  -18.99894 -10.18733 -10.18634  -5.23351  -3.58047
 Alpha  occ. eigenvalues --   -3.57857  -3.57629  -0.98194  -0.92976  -0.91813
 Alpha  occ. eigenvalues --   -0.88152  -0.81947  -0.67517  -0.55611  -0.46045
 Alpha  occ. eigenvalues --   -0.43899  -0.42524  -0.40958  -0.39230  -0.35857
 Alpha  occ. eigenvalues --   -0.34799  -0.29088  -0.28728  -0.27783  -0.25682
 Alpha  occ. eigenvalues --   -0.24343  -0.23437  -0.21886  -0.19833  -0.18526
 Alpha  occ. eigenvalues --   -0.17548  -0.15074
 Alpha virt. eigenvalues --    0.24445   0.26070   0.28008   0.29169   0.30950
 Alpha virt. eigenvalues --    0.31591   0.33721   0.36038   0.36655   0.38889
 Alpha virt. eigenvalues --    0.40226   0.41344   0.43785   0.44139   0.45637

 Mulliken charges:
               1
     1  Si   0.807836
     2  O   -0.444125
     3  H    0.146680
     4  O   -0.589588
     5  H    0.136628
     6  O   -0.391854
     7  O   -0.643246
     8  H    0.267599
     9  O   -0.522555
    10  C    0.071333
    11  H    0.016571
    12  H    0.025728
    13  C    0.080199
    14  H    0.016211
    15  H    0.022583
 Sum of Mulliken charges =  -1.00000

 Dipole moment (field-independent basis, Debye):
    X=             -4.9619    Y=             -0.8468    Z=             -2.4552  Tot=              5.6005
 Quadrupole moment (field-independent basis, Debye-Ang):
   XX=            -65.4085   YY=            -64.9587   ZZ=            -62.5871
   XY=             -4.7383   XZ=             -2.4873   YZ=              3.7796

  Exact polarizability:      80.672       0.346      63.303      -1.534      -0.212      63.670
 Approx polarizability:      75.980       0.972      68.522      -1.311       0.391      69.144

 ******    1 imaginary frequencies (negative Signs) ******

                      1                      2                      3
                      A                      A                      A
 Frequencies --  -1100.3132                80.3349               149.3481
 Red. masses --      1.1212                 3.8097                 4.2020
 Frc consts  --      0.7997                 0.0145                 0.0552
 IR Inten    --   1472.6488                 3.4904                 5.0191

                      4                      5                      6
                      A                      A                      A
 Frequencies --    161.8917               202.7829               266.0247
 Red. masses --      6.7303                 3.4959                 3.8260
 Frc consts  --      0.1039                 0.0847                 0.1595
 IR Inten    --     33.0695               108.3550                17.0492

                      7                      8                      9
                      A                      A                      A
 Frequencies --    285.0672               336.5782               353.4462
 Red. masses --      5.1051                 1.1841                 5.2972
 Frc consts  --      0.2444                 0.0790                 0.3899
 IR Inten    --     38.4011                55.7318                87.0844

                     10                     11                     12
                      A                      A                      A
 Frequencies --    425.2271               496.0573               561.9504
 Red. masses --      4.6918                 4.1294                 1.5238
 Frc consts  --      0.4998                 0.5987                 0.2835
 IR Inten    --    133.1830               125.8442                49.2745

                     13                     14                     15
                      A                      A                      A
 Frequencies --    601.6173               635.0948               658.1726
 Red. masses --      3.2788                 1.2349                 4.7410
 Frc consts  --      0.6992                 0.2935                 1.2100
 IR Inten    --     81.0591               186.9719                25.3647

                     16                     17                     18
                      A                      A                      A
 Frequencies --    686.7555               722.2418               849.2418
 Red. masses --      4.3224                 9.9987                 9.1140
 Frc consts  --      1.2011                 3.0730                 3.8728
 IR Inten    --    207.4691                22.8587               228.1585

                     19                     20                     21
                      A                      A                      A
 Frequencies --    908.6398               930.9135               968.4879
 Red. masses --      1.7216                 2.4194                 1.2921
 Frc consts  --      0.8374                 1.2353                 0.7141
 IR Inten    --     54.5827                21.9272               341.3795

                     22                     23                     24
                      A                      A                      A
 Frequencies --   1083.1810              1146.6455              1153.9263
 Red. masses --      9.2387                 2.9469                 5.0066
 Frc consts  --      6.3865                 2.2829                 3.9278
 IR Inten    --    334.2137               145.4019                 5.8280

                     25                     26                     27
                      A                      A                      A
 Frequencies --   1174.3749              1260.5844              1264.2479
 Red. masses --      2.8425                 1.1490                 1.1719
 Frc consts  --      2.3097                 1.0757                 1.1036
 IR Inten    --    149.2795                 1.7384                16.8969

                     28                     29                     30
                      A                      A                      A
 Frequencies --   1381.8624              1396.5504              1468.5703
 Red. masses --      1.2996                 1.3111                 1.0626
 Frc consts  --      1.4622                 1.5066                 1.3502
 IR Inten    --      9.5968                 7.1354                56.2100

                     31                     32                     33
                      A                      A                      A
 Frequencies --   1513.7591              1520.4014              1790.4629
 Red. masses --      1.0880                 1.0940                 1.0329
 Frc consts  --      1.4689                 1.4899                 1.9508
 IR Inten    --      0.6995                 1.8009                75.5762

                     34                     35                     36
                      A                      A                      A
 Frequencies --   2949.6132              2957.2927              3013.1082
 Red. masses --      1.0750                 1.0619                 1.0900
 Frc consts  --      5.5103                 5.4718                 5.8303
 IR Inten    --     75.4833               123.3116               156.0366

                     37                     38                     39
                      A                      A                      A
 Frequencies --   3026.6914              3930.7598              3954.5400
 Red. masses --      1.0958                 1.0657                 1.0649
 Frc consts  --      5.9144                 9.7014                 9.8117
 IR Inten    --    118.0663                 4.6953                20.8919

 - Thermochemistry -
 -------------------
 Temperature   298.150 Kelvin.  Pressure   1.00000 Atm.
 Atom     1 has atomic number 14 and mass  27.97693

 Molecular mass:   139.00628 amu.
 Principal axes and moments of inertia in atomic units:
                           1         2         3
     Eigenvalues --   621.612401269.058251369.82117
           X            0.99986  -0.01567  -0.00560
           Y            0.01590   0.99887   0.04482
           Z            0.00489  -0.04490   0.99898
 This molecule is an asymmetric top.
 Rotational symmetry number  1.
 Warning -- assumption of classical behavior for rotation
           may cause significant error
 Rotational temperatures (Kelvin)      0.13934     0.06825     0.06323
 Rotational constants (GHZ):           2.90332     1.42211     1.31750
    1 imaginary frequencies ignored.
 Zero-point vibrational energy     276734.8 (Joules/Mol)
                                   66.14120 (Kcal/Mol)
 Warning -- explicit consideration of  12 degrees of freedom as
           vibrations may cause significant error
 Vibrational temperatures:    115.58   214.88   232.93   291.76   382.75
          (Kelvin)            410.15   484.26   508.53   611.81   713.72
                              808.52   865.59   913.76   946.96   988.09
                             1039.14  1221.87  1307.33  1339.38  1393.44
                             1558.46  1649.77  1660.24  1689.66  1813.70
                             1818.97  1988.19  2009.32  2112.95  2177.96
                             2187.52  2576.08  4243.84  4254.88  4335.19
                             4354.73  5655.49  5689.70

 Zero-point correction=                           0.105403 (Hartree/Particle)
 Thermal correction to Energy=                    0.114169
 Thermal correction to Enthalpy=                  0.115113
 Thermal correction to Gibbs Free Energy=         0.072053
 Sum of electronic and zero-point Energies=           -746.209964
 Sum of electronic and thermal Energies=              -746.201197
 Sum of electronic and thermal Enthalpies=            -746.200253
 Sum of electronic and thermal Free Energies=         -746.243313

                     E (Thermal)             CV                S
                      KCal/Mol        Cal/Mol-Kelvin    Cal/Mol-Kelvin
 Total                   71.642             32.224             90.628
 Electronic               0.000              0.000              0.000
 Translational            0.889              2.981             40.700
 Rotational               0.889              2.981             28.471
 Vibrational             69.865             26.263             21.457
 Vibration     1          0.600              1.963              3.883
 Vibration     2          0.618              1.903              2.681
 Vibration     3          0.622              1.889              2.528
 Vibration     4          0.639              1.836              2.108
 Vibration     5          0.672              1.735              1.622
 Vibration     6          0.683              1.701              1.503
 Vibration     7          0.717              1.602              1.228
 Vibration     8          0.730              1.568              1.151
 Vibration     9          0.787              1.415              0.874
 Vibration    10          0.852              1.259              0.668
 Vibration    11          0.918              1.114              0.520
 Vibration    12          0.960              1.028              0.447

 Normal termination of Gaussian 16 at Thu Feb 15 04:38:44 2024.
