 Gaussian 16, Revision C.01,
 Gaussian 16:  ES64L-G16RevC.01  3-Jul-2019

 ------------------------------------------------------------------
 # opt=(calcall,ts,noeigen) freq wb97xd/def2tzvpp geom=connectivity
 ------------------------------------------------------------------

 convert QmonoL to QbiL attacking OH deprotonated TS to QbiLmonoL to Qb
 iL2
 ----------------------------------------------------------------------
 Symbolic Z-matrix:
 Charge = -1 Multiplicity = 1

 SCF Done:  E(RwB97XD) =  -823.723071798     A.U. after   15 cycles
 SCF Done:  E(RwB97XD) =  -823.723213985     A.U. after   12 cycles
 SCF Done:  E(RwB97XD) =  -823.723223046     A.U. after    9 cycles
 SCF Done:  E(RwB97XD) =  -823.723223054     A.U. after    7 cycles
 Optimization completed.
    -- Stationary point found.
 ******    1 imaginary frequencies (negative Signs) ******
    1 imaginary frequencies ignored.
 Normal termination of Gaussian 16 at Sun Feb 18 20:04:48 2024.

 ----------------------------------------------------------------------
 #N Geom=AllCheck Guess=TCheck SCRF=Check GenChk RwB97XD/def2TZVPP Freq
 ----------------------------------------------------------------------

 ----------------------------------------------------------------------
 convert QmonoL to QbiL attacking OH deprotonated TS to QbiLmonoL to Qb
 iL2
 ----------------------------------------------------------------------
 Charge = -1 Multiplicity = 1

                         Standard orientation:
 ---------------------------------------------------------------------
 Center     Atomic      Atomic             Coordinates (Angstroms)
 Number     Number       Type             X           Y           Z
 ---------------------------------------------------------------------
      1         14           0        0.233081    0.300832   -0.222377
      2          8           0        0.947098   -0.138205    1.229541
      3          8           0       -0.326511    1.804519   -0.321969
      4          1           0       -1.207700    1.625565    0.207079
      5          8           0        1.646491    0.179183   -1.127233
      6          8           0       -0.692048   -0.902322   -0.845645
      7          6           0       -1.939478   -1.308021   -0.321200
      8          1           0       -1.766750   -1.939186    0.560187
      9          1           0       -2.441626   -1.909825   -1.088705
     10          6           0       -2.786750   -0.105727    0.095920
     11          1           0       -3.098870    0.411221   -0.840476
     12          1           0       -3.724802   -0.515590    0.533856
     13          8           0       -2.095195    0.695398    0.948683
     14          6           0        2.748858   -0.046103   -0.294269
     15          1           0        3.475773   -0.694393   -0.795332
     16          1           0        3.247142    0.904330   -0.056923
     17          6           0        2.212687   -0.693362    0.990372
     18          1           0        2.132739   -1.781313    0.857613
     19          1           0        2.870369   -0.501763    1.844022
 ---------------------------------------------------------------------

 SCF Done:  E(RwB97XD) =  -823.723223054     A.U. after    1 cycles

 The electronic state is 1-A.
 Alpha  occ. eigenvalues --  -66.13832 -19.09314 -19.09112 -19.08560 -19.04555
 Alpha  occ. eigenvalues --  -18.98930 -10.20413 -10.20378 -10.17110 -10.14615
 Alpha  occ. eigenvalues --   -5.25495  -3.60173  -3.59956  -3.59820  -1.00282
 Alpha  occ. eigenvalues --   -0.95686  -0.94116  -0.90477  -0.85765  -0.69497
 Alpha  occ. eigenvalues --   -0.64914  -0.57502  -0.52906  -0.47106  -0.45617
 Alpha  occ. eigenvalues --   -0.43728  -0.40933  -0.39981  -0.39634  -0.37550
 Alpha  occ. eigenvalues --   -0.36572  -0.35640  -0.31588  -0.30145  -0.27046
 Alpha  occ. eigenvalues --   -0.26959  -0.26242  -0.25753  -0.24480  -0.22901
 Alpha  occ. eigenvalues --   -0.21446  -0.20222  -0.13093  -0.12828
 Alpha virt. eigenvalues --    0.23659   0.26119   0.26767   0.27323   0.28108
 Alpha virt. eigenvalues --    0.29770   0.31575   0.32629   0.33199   0.33502
 Alpha virt. eigenvalues --    0.34884   0.35423   0.38050   0.38909   0.39088

 Mulliken charges:
               1
     1  Si   0.780212
     2  O   -0.403143
     3  O   -0.532725
     4  H    0.253903
     5  O   -0.457676
     6  O   -0.400169
     7  C    0.098076
     8  H    0.030943
     9  H    0.014683
    10  C    0.078905
    11  H   -0.016143
    12  H   -0.022952
    13  O   -0.681198
    14  C    0.070637
    15  H    0.025153
    16  H    0.032189
    17  C    0.064025
    18  H    0.032750
    19  H    0.032530
 Sum of Mulliken charges =  -1.00000

 Dipole moment (field-independent basis, Debye):
    X=              4.2528    Y=             -3.3718    Z=             -0.5435  Tot=              5.4544
 Quadrupole moment (field-independent basis, Debye-Ang):
   XX=            -79.7984   YY=            -76.2822   ZZ=            -78.5808
   XY=              2.4978   XZ=              6.9811   YZ=             -1.3451

  Exact polarizability:     109.943       3.095      84.302       2.102      -0.995      78.069
 Approx polarizability:      99.792       2.301      91.185       1.055       0.273      89.106

 ******    1 imaginary frequencies (negative Signs) ******

                      1                      2                      3
                      A                      A                      A
 Frequencies --   -196.8783                60.0813               103.1892
 Red. masses --      5.5448                 3.2299                 3.6588
 Frc consts  --      0.1266                 0.0069                 0.0230
 IR Inten    --     21.4804                 3.7402                 3.2088

                      4                      5                      6
                      A                      A                      A
 Frequencies --    143.0349               167.5602               237.2548
 Red. masses --      5.6272                 2.7591                 2.5267
 Frc consts  --      0.0678                 0.0456                 0.0838
 IR Inten    --      0.9428                 5.7409                 3.5125

                      7                      8                      9
                      A                      A                      A
 Frequencies --    251.0553               332.1206               339.2835
 Red. masses --      4.1475                 4.4209                 4.9784
 Frc consts  --      0.1540                 0.2873                 0.3377
 IR Inten    --      5.9474                81.9342                12.5466

                     10                     11                     12
                      A                      A                      A
 Frequencies --    380.1682               400.5680               505.8169
 Red. masses --      5.9236                 9.6058                 9.8914
 Frc consts  --      0.5044                 0.9081                 1.4911
 IR Inten    --     77.9653                37.9329                22.6778

                     13                     14                     15
                      A                      A                      A
 Frequencies --    572.2356               618.1575               697.6601
 Red. masses --      2.3426                 2.8365                 9.1583
 Frc consts  --      0.4520                 0.6386                 2.6264
 IR Inten    --     22.5572                 0.9359                 4.7069

                     16                     17                     18
                      A                      A                      A
 Frequencies --    747.9392               818.9361               894.2870
 Red. masses --      5.6404                 6.6504                 2.3928
 Frc consts  --      1.8591                 2.6278                 1.1275
 IR Inten    --    106.7615                87.1167               107.2743

                     19                     20                     21
                      A                      A                      A
 Frequencies --    903.2266               921.7469               928.9026
 Red. masses --      1.7560                 2.0827                 2.5168
 Frc consts  --      0.8441                 1.0426                 1.2795
 IR Inten    --     28.3065                 2.1194                26.8499

                     22                     23                     24
                      A                      A                      A
 Frequencies --    969.2005              1130.1066              1133.9091
 Red. masses --      5.6660                 2.0129                 2.7143
 Frc consts  --      3.1358                 1.5147                 2.0562
 IR Inten    --    356.3345                70.6054               198.9966

                     25                     26                     27
                      A                      A                      A
 Frequencies --   1138.6964              1142.7278              1164.4226
 Red. masses --      4.3779                 4.8884                 2.2200
 Frc consts  --      3.3445                 3.7610                 1.7734
 IR Inten    --    272.9594               119.5120               228.7248

                     28                     29                     30
                      A                      A                      A
 Frequencies --   1180.0545              1203.7513              1220.4912
 Red. masses --      2.2083                 1.7097                 1.6746
 Frc consts  --      1.8118                 1.4596                 1.4697
 IR Inten    --    111.2827               175.7486               321.0208

                     31                     32                     33
                      A                      A                      A
 Frequencies --   1262.0605              1265.4845              1270.9455
 Red. masses --      1.1375                 1.1653                 1.1618
 Frc consts  --      1.0674                 1.0995                 1.1057
 IR Inten    --      5.7376                13.1025                21.1593

                     34                     35                     36
                      A                      A                      A
 Frequencies --   1290.8382              1383.8270              1390.9085
 Red. masses --      1.1640                 1.2857                 1.2929
 Frc consts  --      1.1428                 1.4506                 1.4737
 IR Inten    --     26.1066                 5.7730                 8.4457

                     37                     38                     39
                      A                      A                      A
 Frequencies --   1398.6407              1404.6579              1494.6602
 Red. masses --      1.2952                 1.3237                 1.0972
 Frc consts  --      1.4928                 1.5388                 1.4442
 IR Inten    --      3.6882                16.7742                 5.9508

                     40                     41                     42
                      A                      A                      A
 Frequencies --   1498.7096              1516.0622              1523.5410
 Red. masses --      1.0901                 1.0875                 1.0919
 Frc consts  --      1.4426                 1.4728                 1.4933
 IR Inten    --      4.0419                 0.8791                 1.0417

                     43                     44                     45
                      A                      A                      A
 Frequencies --   2456.3341              2804.9816              2814.7636
 Red. masses --      1.0716                 1.0943                 1.0575
 Frc consts  --      3.8095                 5.0727                 4.9362
 IR Inten    --   1149.0520               204.0851               225.9731

                     46                     47                     48
                      A                      A                      A
 Frequencies --   2975.9439              2980.5925              2987.3646
 Red. masses --      1.0733                 1.0608                 1.0565
 Frc consts  --      5.6005                 5.5527                 5.5552
 IR Inten    --     84.6460                82.8961               146.1967

                     49                     50                     51
                      A                      A                      A
 Frequencies --   3028.9880              3035.4763              3047.9203
 Red. masses --      1.1066                 1.0895                 1.1013
 Frc consts  --      5.9817                 5.9146                 6.0277
 IR Inten    --    112.4998               121.4582                95.8169

 - Thermochemistry -
 -------------------
 Temperature   298.150 Kelvin.  Pressure   1.00000 Atm.
 Atom     1 has atomic number 14 and mass  27.97693

 Molecular mass:   165.02193 amu.
 Principal axes and moments of inertia in atomic units:
                           1         2         3
     Eigenvalues --   759.395352111.840462194.65334
           X            0.99987   0.00626   0.01500
           Y           -0.00546   0.99857  -0.05325
           Z           -0.01531   0.05316   0.99847
 This molecule is an asymmetric top.
 Rotational symmetry number  1.
 Warning -- assumption of classical behavior for rotation
           may cause significant error
 Rotational temperatures (Kelvin)      0.11406     0.04101     0.03947
 Rotational constants (GHZ):           2.37655     0.85458     0.82234
    1 imaginary frequencies ignored.
 Zero-point vibrational energy     377656.8 (Joules/Mol)
                                   90.26214 (Kcal/Mol)
 Warning -- explicit consideration of  13 degrees of freedom as
           vibrations may cause significant error
 Vibrational temperatures:     86.44   148.47   205.80   241.08   341.36
          (Kelvin)            361.21   477.85   488.15   546.98   576.33
                              727.76   823.32   889.39  1003.78  1076.12
                             1178.27  1286.68  1299.54  1326.19  1336.48
                             1394.46  1625.97  1631.44  1638.33  1644.13
                             1675.34  1697.84  1731.93  1756.01  1815.82
                             1820.75  1828.61  1857.23  1991.02  2001.21
                             2012.33  2020.99  2150.48  2156.31  2181.28
                             2192.04  3534.12  4035.74  4049.82  4281.72
                             4288.41  4298.15  4358.04  4367.37  4385.28

 Zero-point correction=                           0.143842 (Hartree/Particle)
 Thermal correction to Energy=                    0.153199
 Thermal correction to Enthalpy=                  0.154143
 Thermal correction to Gibbs Free Energy=         0.108756
 Sum of electronic and zero-point Energies=           -823.579381
 Sum of electronic and thermal Energies=              -823.570024
 Sum of electronic and thermal Enthalpies=            -823.569080
 Sum of electronic and thermal Free Energies=         -823.614467

                     E (Thermal)             CV                S
                      KCal/Mol        Cal/Mol-Kelvin    Cal/Mol-Kelvin
 Total                   96.134             34.492             95.525
 Electronic               0.000              0.000              0.000
 Translational            0.889              2.981             41.211
 Rotational               0.889              2.981             29.644
 Vibrational             94.357             28.530             24.670
 Vibration     1          0.597              1.973              4.455
 Vibration     2          0.605              1.947              3.393
 Vibration     3          0.616              1.910              2.763
 Vibration     4          0.624              1.882              2.463
 Vibration     5          0.656              1.784              1.823
 Vibration     6          0.663              1.761              1.723
 Vibration     7          0.714              1.611              1.250
 Vibration     8          0.719              1.597              1.216
 Vibration     9          0.750              1.512              1.038
 Vibration    10          0.766              1.469              0.961
 Vibration    11          0.861              1.237              0.644
 Vibration    12          0.928              1.091              0.500
 Vibration    13          0.978              0.994              0.419

 Optimization completed.
    -- Stationary point found.
 Normal termination of Gaussian 16 at Sun Feb 18 20:50:09 2024.
