 Gaussian 16, Revision C.01,
 Gaussian 16:  ES64L-G16RevC.01  3-Jul-2019

 ------------------------------------------------------------------
 # opt=(calcall,ts,noeigen) freq wb97xd/def2tzvpp geom=connectivity
 ------------------------------------------------------------------

 --------------------------------------------------------
 TS Opt from GIC sim scan of EG coming off of PL1 complex
 --------------------------------------------------------
 Symbolic Z-matrix:
 Charge = -2 Multiplicity = 1

 SCF Done:  E(RwB97XD) =  -822.041026194     A.U. after   16 cycles
 SCF Done:  E(RwB97XD) =  -822.046479909     A.U. after   15 cycles
 SCF Done:  E(RwB97XD) =  -822.051043503     A.U. after   14 cycles
 SCF Done:  E(RwB97XD) =  -822.052753140     A.U. after   14 cycles
 SCF Done:  E(RwB97XD) =  -822.053276280     A.U. after   13 cycles
 SCF Done:  E(RwB97XD) =  -822.053319782     A.U. after   12 cycles
 SCF Done:  E(RwB97XD) =  -822.053320188     A.U. after    9 cycles
 Optimization completed.
    -- Stationary point found.
 ******    1 imaginary frequencies (negative Signs) ******
    1 imaginary frequencies ignored.
 Normal termination of Gaussian 16 at Fri Jan 12 04:32:27 2024.

 ----------------------------------------------------------------------
 #N Geom=AllCheck Guess=TCheck SCRF=Check GenChk RwB97XD/def2TZVPP Freq
 ----------------------------------------------------------------------

 Structure from the checkpoint file:  "MaxFromSimScanTSOpt.chk"
 --------------------------------------------------------
 TS Opt from GIC sim scan of EG coming off of PL1 complex
 --------------------------------------------------------
 Charge = -2 Multiplicity = 1

                         Standard orientation:
 ---------------------------------------------------------------------
 Center     Atomic      Atomic             Coordinates (Angstroms)
 Number     Number       Type             X           Y           Z
 ---------------------------------------------------------------------
      1         14           0        0.720080    0.038941   -0.049806
      2          8           0        0.430991    0.061571    1.708386
      3          8           0        0.532702   -0.486784   -1.693817
      4          8           0        1.862953    1.311084   -0.208531
      5          8           0       -0.631438    1.269400   -0.266733
      6          8           0       -1.261281   -1.350804    0.187193
      7          8           0        1.855782   -1.277458    0.220676
      8          6           0       -2.252654   -0.502334   -0.173443
      9          1           0       -3.244111   -0.720660    0.317150
     10          1           0       -2.469052   -0.522602   -1.274818
     11          6           0       -1.890237    0.955518    0.173728
     12          1           0       -1.978325    1.070602    1.277319
     13          1           0       -2.644393    1.637239   -0.277572
     14          1           0        1.912649   -1.294683    1.174564
     15          1           0       -0.322225   -0.538133    1.748491
     16          1           0        1.305917    2.086678   -0.261286
     17          1           0       -0.101914   -1.198792   -1.585665
 ---------------------------------------------------------------------

 SCF Done:  E(RwB97XD) =  -822.053320188     A.U. after    1 cycles

 The electronic state is 1-A.
 Alpha  occ. eigenvalues --  -65.96156 -18.88207 -18.87206 -18.86339 -18.86253
 Alpha  occ. eigenvalues --  -18.85768 -18.84299 -10.00653 -10.00199  -5.06805
 Alpha  occ. eigenvalues --   -3.41549  -3.41277  -3.41214  -0.77344  -0.73819
 Alpha  occ. eigenvalues --   -0.72566  -0.71128  -0.70474  -0.69031  -0.47536
 Alpha  occ. eigenvalues --   -0.35445  -0.27932  -0.24665  -0.22820  -0.21718
 Alpha  occ. eigenvalues --   -0.21449  -0.19389  -0.17837  -0.15832  -0.14349
 Alpha  occ. eigenvalues --   -0.11374  -0.09952  -0.08864  -0.08228  -0.05170
 Alpha  occ. eigenvalues --   -0.04664  -0.03136  -0.02759  -0.01224   0.00457
 Alpha  occ. eigenvalues --    0.01983   0.03094
 Alpha virt. eigenvalues --    0.38617   0.41826   0.42128   0.43219   0.45001
 Alpha virt. eigenvalues --    0.46429   0.48898   0.50147   0.51769   0.53765
 Alpha virt. eigenvalues --    0.54768   0.55544   0.55856   0.56771   0.58599

 Mulliken charges:
               1
     1  Si   0.949266
     2  O   -0.603727
     3  O   -0.547925
     4  O   -0.534892
     5  O   -0.525799
     6  O   -0.728311
     7  O   -0.556211
     8  C    0.162728
     9  H   -0.113422
    10  H   -0.086105
    11  C    0.147746
    12  H   -0.061010
    13  H   -0.070026
    14  H    0.113071
    15  H    0.157696
    16  H    0.128870
    17  H    0.168051
 Sum of Mulliken charges =  -2.00000

 Dipole moment (field-independent basis, Debye):
    X=             -2.3656    Y=              1.5142    Z=              0.9584  Tot=              2.9677
 Quadrupole moment (field-independent basis, Debye-Ang):
   XX=            -96.1531   YY=            -80.3913   ZZ=            -79.8860
   XY=             -1.1896   XZ=              2.5702   YZ=             -1.3659

  Exact polarizability:     100.996      -2.490      78.193       0.929       0.084      80.180
 Approx polarizability:      94.573      -1.617      83.422       0.118      -1.252      85.775

 ******    1 imaginary frequencies (negative Signs) ******

                      1                      2                      3
                      A                      A                      A
 Frequencies --   -140.6008               118.1096               177.2188
 Red. masses --      7.9107                 3.2954                 6.2202
 Frc consts  --      0.0921                 0.0271                 0.1151
 IR Inten    --     57.8196                 5.0412                21.6074

                      4                      5                      6
                      A                      A                      A
 Frequencies --    199.1540               247.8879               273.7205
 Red. masses --      5.0684                 5.9630                 3.1042
 Frc consts  --      0.1184                 0.2159                 0.1370
 IR Inten    --     20.4723                 2.9887                23.7503

                      7                      8                      9
                      A                      A                      A
 Frequencies --    284.7840               330.3758               361.6242
 Red. masses --      2.3755                 3.5078                 5.0578
 Frc consts  --      0.1135                 0.2256                 0.3897
 IR Inten    --      4.0620                 3.6578                19.5538

                     10                     11                     12
                      A                      A                      A
 Frequencies --    370.7717               389.9142               428.4098
 Red. masses --      1.7907                 2.0658                 4.4202
 Frc consts  --      0.1450                 0.1850                 0.4780
 IR Inten    --      4.3474                 3.8989                39.2907

                     13                     14                     15
                      A                      A                      A
 Frequencies --    445.5609               457.0447               466.4771
 Red. masses --      2.0934                 2.9278                 2.6894
 Frc consts  --      0.2449                 0.3603                 0.3448
 IR Inten    --     24.1734                41.4870                21.6050

                     16                     17                     18
                      A                      A                      A
 Frequencies --    509.7593               588.9947               596.1149
 Red. masses --      2.2969                 6.3262                 2.2122
 Frc consts  --      0.3517                 1.2930                 0.4632
 IR Inten    --     22.1265               136.3355                15.4576

                     19                     20                     21
                      A                      A                      A
 Frequencies --    648.7985               694.1557               726.0478
 Red. masses --      2.7729                 2.1300                 5.5690
 Frc consts  --      0.6877                 0.6047                 1.7297
 IR Inten    --    124.2663               165.1487               303.9859

                     22                     23                     24
                      A                      A                      A
 Frequencies --    743.9883               875.4910               925.7539
 Red. masses --      4.8941                 2.4315                 1.8505
 Frc consts  --      1.5961                 1.0981                 0.9344
 IR Inten    --    315.2693                38.6097                58.3839

                     25                     26                     27
                      A                      A                      A
 Frequencies --   1023.5230              1036.7705              1053.9487
 Red. masses --      1.1168                 1.2021                 1.1953
 Frc consts  --      0.6893                 0.7613                 0.7823
 IR Inten    --    214.5385               159.4838               359.3921

                     28                     29                     30
                      A                      A                      A
 Frequencies --   1071.7498              1133.6975              1179.1901
 Red. masses --      1.2564                 2.2052                 2.8867
 Frc consts  --      0.8503                 1.6699                 2.3649
 IR Inten    --    225.2412                41.6149                21.7237

                     31                     32                     33
                      A                      A                      A
 Frequencies --   1205.2716              1248.9055              1261.5412
 Red. masses --      3.3053                 1.2689                 1.2190
 Frc consts  --      2.8290                 1.1661                 1.1430
 IR Inten    --    186.7095                 3.0018                 5.0627

                     34                     35                     36
                      A                      A                      A
 Frequencies --   1378.2251              1380.8354              1474.2641
 Red. masses --      1.3321                 1.3335                 1.0980
 Frc consts  --      1.4908                 1.4980                 1.4060
 IR Inten    --     15.0755                40.4061                21.2931

                     37                     38                     39
                      A                      A                      A
 Frequencies --   1480.3979              2630.3216              2694.6379
 Red. masses --      1.0912                 1.0849                 1.0587
 Frc consts  --      1.4090                 4.4223                 4.5294
 IR Inten    --     14.2149               476.6176               344.2491

                     40                     41                     42
                      A                      A                      A
 Frequencies --   2814.5076              2820.6077              3797.6116
 Red. masses --      1.0780                 1.0753                 1.0642
 Frc consts  --      5.0314                 5.0405                 9.0424
 IR Inten    --    294.9732               453.3872                80.6399

                     43                     44                     45
                      A                      A                      A
 Frequencies --   3872.6331              3921.6097              3927.2375
 Red. masses --      1.0641                 1.0641                 1.0641
 Frc consts  --      9.4027                 9.6421                 9.6691
 IR Inten    --     32.6858                 6.4500                10.5517

 - Thermochemistry -
 -------------------
 Temperature   298.150 Kelvin.  Pressure   1.00000 Atm.
 Atom     1 has atomic number 14 and mass  27.97693

 Molecular mass:   156.00902 amu.
 Principal axes and moments of inertia in atomic units:
                           1         2         3
     Eigenvalues --   878.203251457.739281571.39364
           X            0.99986  -0.01411   0.00899
           Y            0.01405   0.99988   0.00706
           Z           -0.00908  -0.00693   0.99993
 This molecule is an asymmetric top.
 Rotational symmetry number  1.
 Warning -- assumption of classical behavior for rotation
           may cause significant error
 Rotational temperatures (Kelvin)      0.09863     0.05942     0.05512
 Rotational constants (GHZ):           2.05504     1.23804     1.14850
    1 imaginary frequencies ignored.
 Zero-point vibrational energy     318611.3 (Joules/Mol)
                                   76.14992 (Kcal/Mol)
 Warning -- explicit consideration of  17 degrees of freedom as
           vibrations may cause significant error
 Vibrational temperatures:    169.93   254.98   286.54   356.66   393.82
          (Kelvin)            409.74   475.34   520.30   533.46   561.00
                              616.39   641.06   657.59   671.16   733.43
                              847.43   857.68   933.48   998.74  1044.62
                             1070.43  1259.64  1331.95  1472.62  1491.68
                             1516.40  1542.01  1631.14  1696.59  1734.12
                             1796.90  1815.08  1982.96  1986.71  2121.14
                             2129.96  3784.45  3876.98  4049.45  4058.23
                             5463.92  5571.86  5642.32  5650.42

 Zero-point correction=                           0.121353 (Hartree/Particle)
 Thermal correction to Energy=                    0.131213
 Thermal correction to Enthalpy=                  0.132157
 Thermal correction to Gibbs Free Energy=         0.087555
 Sum of electronic and zero-point Energies=           -821.931968
 Sum of electronic and thermal Energies=              -821.922107
 Sum of electronic and thermal Enthalpies=            -821.921163
 Sum of electronic and thermal Free Energies=         -821.965765

                     E (Thermal)             CV                S
                      KCal/Mol        Cal/Mol-Kelvin    Cal/Mol-Kelvin
 Total                   82.337             38.784             93.872
 Electronic               0.000              0.000              0.000
 Translational            0.889              2.981             41.044
 Rotational               0.889              2.981             29.088
 Vibrational             80.560             32.822             23.740
 Vibration     1          0.608              1.934              3.131
 Vibration     2          0.628              1.870              2.358
 Vibration     3          0.637              1.841              2.141
 Vibration     4          0.662              1.766              1.746
 Vibration     5          0.676              1.722              1.573
 Vibration     6          0.683              1.702              1.505
 Vibration     7          0.713              1.615              1.258
 Vibration     8          0.736              1.551              1.115
 Vibration     9          0.743              1.532              1.077
 Vibration    10          0.758              1.492              1.000
 Vibration    11          0.790              1.408              0.864
 Vibration    12          0.805              1.371              0.809
 Vibration    13          0.815              1.345              0.775
 Vibration    14          0.824              1.324              0.747
 Vibration    15          0.865              1.228              0.634
 Vibration    16          0.946              1.055              0.469
 Vibration    17          0.954              1.040              0.456

 Optimization completed.
    -- Stationary point found.
 Normal termination of Gaussian 16 at Fri Jan 12 04:58:09 2024.
