 Gaussian 16, Revision C.01,
 Gaussian 16:  ES64L-G16RevC.01  3-Jul-2019

 ------------------------------------------------------------------
 # opt=(calcall,ts,noeigen) freq wb97xd/def2tzvpp geom=connectivity
 ------------------------------------------------------------------

 Take TS opt from hydroxyl loss of HbiL2moL collapse deprotonated and r
 eprotonate free ligand hydroxyl
 ----------------------------------------------------------------------
 Symbolic Z-matrix:
 Charge = -2 Multiplicity = 1

 SCF Done:  E(RwB97XD) =  -1053.27599827     A.U. after   15 cycles
 SCF Done:  E(RwB97XD) =  -1053.28802908     A.U. after   15 cycles
 SCF Done:  E(RwB97XD) =  -1053.29400647     A.U. after   14 cycles
 SCF Done:  E(RwB97XD) =  -1053.29770948     A.U. after   14 cycles
 SCF Done:  E(RwB97XD) =  -1053.30064751     A.U. after   15 cycles
 SCF Done:  E(RwB97XD) =  -1053.30151924     A.U. after   14 cycles
 SCF Done:  E(RwB97XD) =  -1053.30193988     A.U. after   13 cycles
 SCF Done:  E(RwB97XD) =  -1053.30200097     A.U. after   13 cycles
 SCF Done:  E(RwB97XD) =  -1053.30201000     A.U. after   13 cycles
 SCF Done:  E(RwB97XD) =  -1053.30201195     A.U. after   11 cycles
 SCF Done:  E(RwB97XD) =  -1053.30201174     A.U. after    8 cycles
 Optimization completed.
    -- Stationary point found.
 ******    1 imaginary frequencies (negative Signs) ******
    1 imaginary frequencies ignored.
 Normal termination of Gaussian 16 at Thu Feb 29 15:46:33 2024.

 ----------------------------------------------------------------------
 #N Geom=AllCheck Guess=TCheck SCRF=Check GenChk RwB97XD/def2TZVPP Freq
 ----------------------------------------------------------------------

 ----------------------------------------------------------------------
 Take TS opt from hydroxyl loss of HbiL2moL collapse deprotonated and r
 eprotonate free ligand hydroxyl
 ----------------------------------------------------------------------
 Charge = -2 Multiplicity = 1

                         Standard orientation:
 ---------------------------------------------------------------------
 Center     Atomic      Atomic             Coordinates (Angstroms)
 Number     Number       Type             X           Y           Z
 ---------------------------------------------------------------------
      1         14           0        0.356900   -0.021020    0.080966
      2          8           0        0.196687    1.133572   -1.200814
      3          8           0        1.081966   -0.992469    1.317893
      4          8           0        0.748290   -1.258016   -1.078254
      5          8           0       -1.322485   -0.433448    0.297437
      6          8           0       -3.810542    0.337800    0.583194
      7          8           0        0.428121    1.293115    1.219037
      8          6           0       -3.564687   -0.778883   -0.245700
      9          1           0       -4.292801   -0.774363   -1.065271
     10          1           0       -3.699589   -1.708753    0.328382
     11          6           0       -2.138913   -0.717244   -0.782148
     12          1           0       -2.064285    0.068954   -1.547277
     13          1           0       -1.876813   -1.670411   -1.264805
     14          6           0        0.274761    2.541538    0.644553
     15          1           0       -0.776050    2.889453    0.725169
     16          1           0        0.910171    3.282775    1.154734
     17          6           0        0.666535    2.389248   -0.824869
     18          1           0        0.208836    3.174514   -1.448908
     19          1           0        1.763147    2.403146   -0.908001
     20          6           0        1.802643   -2.050899   -0.633828
     21          1           0        1.790989   -3.029527   -1.142730
     22          1           0        2.754137   -1.525575   -0.802212
     23          6           0        1.585244   -2.201180    0.872314
     24          1           0        0.869907   -3.024255    1.077095
     25          1           0        2.527504   -2.440384    1.389698
     26          8           0        3.295205    0.711284   -0.310118
     27          1           0        3.118994    0.693275    0.632143
     28          1           0       -2.922191    0.525248    0.929539
 ---------------------------------------------------------------------

 SCF Done:  E(RwB97XD) =  -1053.30201174     A.U. after    1 cycles

 The electronic state is 1-A.
 Alpha  occ. eigenvalues --  -66.00633 -19.01238 -18.95153 -18.92493 -18.92362
 Alpha  occ. eigenvalues --  -18.92001 -18.91880 -18.78721 -10.09922 -10.07267
 Alpha  occ. eigenvalues --  -10.04696 -10.04694 -10.03066 -10.03040  -5.11528
 Alpha  occ. eigenvalues --   -3.46290  -3.46010  -3.45889  -0.89726  -0.84795
 Alpha  occ. eigenvalues --   -0.82068  -0.81684  -0.77777  -0.76154  -0.60223
 Alpha  occ. eigenvalues --   -0.58470  -0.53960  -0.51730  -0.46191  -0.41926
 Alpha  occ. eigenvalues --   -0.39468  -0.36433  -0.34065  -0.32106  -0.30814
 Alpha  occ. eigenvalues --   -0.29331  -0.28608  -0.28157  -0.28031  -0.25500
 Alpha  occ. eigenvalues --   -0.24611  -0.23004  -0.22112  -0.20471  -0.19594
 Alpha  occ. eigenvalues --   -0.18903  -0.17167  -0.14757  -0.12246  -0.11187
 Alpha  occ. eigenvalues --   -0.10358  -0.10024  -0.09069  -0.08466  -0.07874
 Alpha  occ. eigenvalues --   -0.07715  -0.05133  -0.04955  -0.02901   0.04934
 Alpha  occ. eigenvalues --    0.05315
 Alpha virt. eigenvalues --    0.33447   0.35691   0.36436   0.37452   0.38608
 Alpha virt. eigenvalues --    0.39478   0.40424   0.40902   0.41705   0.41901
 Alpha virt. eigenvalues --    0.43311   0.43987   0.45897   0.46405   0.46876

 Mulliken charges:
               1
     1  Si   0.765674
     2  O   -0.460833
     3  O   -0.442438
     4  O   -0.485972
     5  O   -0.437234
     6  O   -0.450157
     7  O   -0.458731
     8  C    0.104533
     9  H    0.003246
    10  H    0.009828
    11  C    0.065546
    12  H    0.037107
    13  H    0.013374
    14  C    0.060400
    15  H   -0.029906
    16  H   -0.008601
    17  C    0.135164
    18  H   -0.038486
    19  H    0.016879
    20  C    0.134595
    21  H   -0.041935
    22  H    0.017502
    23  C    0.069258
    24  H   -0.032261
    25  H   -0.007079
    26  O   -0.892176
    27  H    0.122410
    28  H    0.230292
 Sum of Mulliken charges =  -2.00000

 Dipole moment (field-independent basis, Debye):
    X=             -8.7670    Y=             -2.5745    Z=              0.2606  Tot=              9.1409
 Quadrupole moment (field-independent basis, Debye-Ang):
   XX=           -165.7508   YY=           -112.2207   ZZ=           -111.5346
   XY=             -4.6345   XZ=              8.8628   YZ=              1.3201

  Exact polarizability:     141.061      -3.134     148.990       3.219       0.656     114.531
 Approx polarizability:     135.478      -2.384     145.421       3.094       1.514     132.131

 ******    1 imaginary frequencies (negative Signs) ******

                      1                      2                      3
                      A                      A                      A
 Frequencies --   -111.1709                22.0898                37.3500
 Red. masses --     11.0021                 4.9461                 4.3194
 Frc consts  --      0.0801                 0.0014                 0.0036
 IR Inten    --    108.3196                 1.0917                 1.5228

                      4                      5                      6
                      A                      A                      A
 Frequencies --     67.9649                92.4814               101.9609
 Red. masses --      3.8631                 5.0143                 3.0944
 Frc consts  --      0.0105                 0.0253                 0.0190
 IR Inten    --      2.9558                 8.9759                19.1647

                      7                      8                      9
                      A                      A                      A
 Frequencies --    119.5091               131.4131               149.8176
 Red. masses --      6.3270                 4.5986                 3.8338
 Frc consts  --      0.0532                 0.0468                 0.0507
 IR Inten    --     24.6955                 7.3812                10.9167

                     10                     11                     12
                      A                      A                      A
 Frequencies --    182.8385               210.6409               240.1355
 Red. masses --      3.7171                 2.3728                 2.1528
 Frc consts  --      0.0732                 0.0620                 0.0731
 IR Inten    --      2.8674                 6.9347                 0.7339

                     13                     14                     15
                      A                      A                      A
 Frequencies --    259.3093               291.0119               312.0111
 Red. masses --      2.8475                 4.5323                 2.1019
 Frc consts  --      0.1128                 0.2261                 0.1206
 IR Inten    --      0.4049                 1.9528                37.9118

                     16                     17                     18
                      A                      A                      A
 Frequencies --    332.7265               351.4828               400.6806
 Red. masses --      1.8574                 5.9596                 6.7164
 Frc consts  --      0.1212                 0.4338                 0.6353
 IR Inten    --      3.0650                 2.1290                26.4112

                     19                     20                     21
                      A                      A                      A
 Frequencies --    441.8844               451.3214               475.2416
 Red. masses --      6.7810                 2.4225                 1.5984
 Frc consts  --      0.7801                 0.2907                 0.2127
 IR Inten    --      4.4947                87.9359                92.7640

                     22                     23                     24
                      A                      A                      A
 Frequencies --    552.1253               593.3622               629.3102
 Red. masses --      3.1969                11.1381                 2.8705
 Frc consts  --      0.5742                 2.3105                 0.6698
 IR Inten    --     53.3566                31.9118                 4.7537

                     25                     26                     27
                      A                      A                      A
 Frequencies --    637.4930               654.6196               669.1450
 Red. masses --      2.5693                 9.6032                 1.1292
 Frc consts  --      0.6152                 2.4246                 0.2979
 IR Inten    --      1.3152                30.2136                31.6076

                     28                     29                     30
                      A                      A                      A
 Frequencies --    700.9143               730.9021               765.2999
 Red. masses --      2.9862                 5.1826                10.8634
 Frc consts  --      0.8644                 1.6312                 3.7487
 IR Inten    --    216.5565               210.5714               473.3596

                     31                     32                     33
                      A                      A                      A
 Frequencies --    910.6548               917.9921               924.7974
 Red. masses --      2.2247                 1.7399                 2.0621
 Frc consts  --      1.0870                 0.8639                 1.0391
 IR Inten    --     37.6643                 4.6819                45.7113

                     34                     35                     36
                      A                      A                      A
 Frequencies --    934.3705               934.6370               939.8511
 Red. masses --      2.1209                 2.2735                 2.0447
 Frc consts  --      1.0910                 1.1701                 1.0641
 IR Inten    --     28.3550                14.2901                28.9773

                     37                     38                     39
                      A                      A                      A
 Frequencies --   1101.8969              1135.5690              1147.2846
 Red. masses --      2.8841                 3.9786                 2.4804
 Frc consts  --      2.0632                 3.0228                 1.9236
 IR Inten    --     60.7798               220.1501                90.7062

                     40                     41                     42
                      A                      A                      A
 Frequencies --   1151.5642              1155.7780              1176.3767
 Red. masses --      2.2989                 3.8085                 4.1552
 Frc consts  --      1.7962                 2.9974                 3.3879
 IR Inten    --     17.8354                65.4535                23.1511

                     43                     44                     45
                      A                      A                      A
 Frequencies --   1181.6683              1182.4012              1208.1419
 Red. masses --      2.5001                 3.1441                 3.5153
 Frc consts  --      2.0568                 2.5898                 3.0230
 IR Inten    --    235.9297               154.2818                 4.4713

                     46                     47                     48
                      A                      A                      A
 Frequencies --   1236.5143              1255.4367              1259.2868
 Red. masses --      1.2330                 1.1914                 1.2280
 Frc consts  --      1.1108                 1.1064                 1.1474
 IR Inten    --     12.4203                27.7900                 5.4488

                     49                     50                     51
                      A                      A                      A
 Frequencies --   1260.3306              1273.5664              1278.2540
 Red. masses --      1.2095                 1.2193                 1.2504
 Frc consts  --      1.1320                 1.1652                 1.2037
 IR Inten    --      2.5475                 0.3125                 3.2494

                     52                     53                     54
                      A                      A                      A
 Frequencies --   1357.1018              1374.5352              1381.9207
 Red. masses --      1.2448                 1.3211                 1.3478
 Frc consts  --      1.3508                 1.4706                 1.5165
 IR Inten    --      5.5067                 3.7585                 8.5599

                     55                     56                     57
                      A                      A                      A
 Frequencies --   1395.6304              1419.7994              1424.1945
 Red. masses --      1.3248                 1.2128                 1.2198
 Frc consts  --      1.5203                 1.4404                 1.4577
 IR Inten    --     13.9802                 6.1939                11.2191

                     58                     59                     60
                      A                      A                      A
 Frequencies --   1467.6761              1470.2936              1477.1652
 Red. masses --      1.2267                 1.1144                 1.0941
 Frc consts  --      1.5568                 1.4194                 1.4066
 IR Inten    --     66.1653                46.6907                 6.2910

                     61                     62                     63
                      A                      A                      A
 Frequencies --   1499.4088              1501.8006              1506.7585
 Red. masses --      1.0943                 1.0949                 1.0901
 Frc consts  --      1.4495                 1.4549                 1.4582
 IR Inten    --      5.2742                 1.3902                 2.5378

                     64                     65                     66
                      A                      A                      A
 Frequencies --   1520.4825              2840.4820              2844.6065
 Red. masses --      1.1013                 1.0738                 1.0740
 Frc consts  --      1.5001                 5.1046                 5.1202
 IR Inten    --      3.6970               206.3326               221.4252

                     67                     68                     69
                      A                      A                      A
 Frequencies --   2917.4513              2924.7956              2948.3931
 Red. masses --      1.0630                 1.0632                 1.0795
 Frc consts  --      5.3308                 5.3587                 5.5287
 IR Inten    --    402.4001               210.9322               332.1273

                     70                     71                     72
                      A                      A                      A
 Frequencies --   2949.1452              2952.2180              2967.1613
 Red. masses --      1.0713                 1.0801                 1.0572
 Frc consts  --      5.4899                 5.5464                 5.4841
 IR Inten    --     44.6955               178.9323                68.4965

                     73                     74                     75
                      A                      A                      A
 Frequencies --   2997.2105              2998.1158              3000.0658
 Red. masses --      1.1009                 1.0994                 1.1013
 Frc consts  --      5.8269                 5.8226                 5.8403
 IR Inten    --     12.3577                99.3179                23.8830

                     76                     77                     78
                      A                      A                      A
 Frequencies --   3026.6147              3657.8137              3872.4897
 Red. masses --      1.0936                 1.0645                 1.0666
 Frc consts  --      5.9025                 8.3917                 9.4241
 IR Inten    --    145.7774               200.0733                17.8561

 - Thermochemistry -
 -------------------
 Temperature   298.150 Kelvin.  Pressure   1.00000 Atm.
 Atom     1 has atomic number 14 and mass  27.97693

 Molecular mass:   226.05088 amu.
 Principal axes and moments of inertia in atomic units:
                           1         2         3
     Eigenvalues --  2113.693043521.659294540.32517
           X            0.99995   0.00123   0.01016
           Y           -0.00124   1.00000   0.00123
           Z           -0.01016  -0.00124   0.99995
 This molecule is an asymmetric top.
 Rotational symmetry number  1.
 Warning -- assumption of classical behavior for rotation
           may cause significant error
 Rotational temperatures (Kelvin)      0.04098     0.02459     0.01908
 Rotational constants (GHZ):           0.85383     0.51247     0.39749
    1 imaginary frequencies ignored.
 Zero-point vibrational energy     573398.5 (Joules/Mol)
                                  137.04554 (Kcal/Mol)
 Warning -- explicit consideration of  22 degrees of freedom as
           vibrations may cause significant error
 Vibrational temperatures:     31.78    53.74    97.79   133.06   146.70
          (Kelvin)            171.95   189.07   215.55   263.06   303.07
                              345.50   373.09   418.70   448.91   478.72
                              505.71   576.49   635.77   649.35   683.77
                              794.39   853.72   905.44   917.21   941.85
                              962.75  1008.46  1051.61  1101.10  1310.23
                             1320.79  1330.58  1344.35  1344.73  1352.24
                             1585.38  1633.83  1650.69  1656.84  1662.91
                             1692.54  1700.16  1701.21  1738.25  1779.07
                             1806.29  1811.83  1813.33  1832.38  1839.12
                             1952.57  1977.65  1988.28  2008.00  2042.77
                             2049.10  2111.66  2115.42  2125.31  2157.31
                             2160.76  2167.89  2187.64  4086.82  4092.75
                             4197.56  4208.13  4242.08  4243.16  4247.58
                             4269.08  4312.32  4313.62  4316.43  4354.62
                             5262.78  5571.65

 Zero-point correction=                           0.218396 (Hartree/Particle)
 Thermal correction to Energy=                    0.233878
 Thermal correction to Enthalpy=                  0.234822
 Thermal correction to Gibbs Free Energy=         0.174460
 Sum of electronic and zero-point Energies=          -1053.083616
 Sum of electronic and thermal Energies=             -1053.068134
 Sum of electronic and thermal Enthalpies=           -1053.067189
 Sum of electronic and thermal Free Energies=        -1053.127552

                     E (Thermal)             CV                S
                      KCal/Mol        Cal/Mol-Kelvin    Cal/Mol-Kelvin
 Total                  146.761             56.122            127.044
 Electronic               0.000              0.000              0.000
 Translational            0.889              2.981             42.149
 Rotational               0.889              2.981             31.891
 Vibrational            144.983             50.160             53.004
 Vibration     1          0.593              1.985              6.437
 Vibration     2          0.594              1.982              5.395
 Vibration     3          0.598              1.969              4.211
 Vibration     4          0.602              1.955              3.607
 Vibration     5          0.604              1.948              3.416
 Vibration     6          0.609              1.933              3.108
 Vibration     7          0.612              1.922              2.925
 Vibration     8          0.618              1.903              2.675
 Vibration     9          0.630              1.863              2.299
 Vibration    10          0.643              1.825              2.038
 Vibration    11          0.657              1.779              1.802
 Vibration    12          0.668              1.747              1.666
 Vibration    13          0.687              1.690              1.468
 Vibration    14          0.700              1.651              1.352
 Vibration    15          0.715              1.610              1.247
 Vibration    16          0.728              1.572              1.160
 Vibration    17          0.767              1.469              0.960
 Vibration    18          0.802              1.379              0.821
 Vibration    19          0.810              1.358              0.792
 Vibration    20          0.832              1.305              0.723
 Vibration    21          0.907              1.135              0.540
 Vibration    22          0.951              1.046              0.461

 Optimization completed.
    -- Stationary point found.
 Normal termination of Gaussian 16 at Thu Feb 29 19:21:37 2024.
