 Gaussian 16, Revision C.01,
 Gaussian 16:  ES64L-G16RevC.01  3-Jul-2019

 ------------------------------------------------------------------
 # opt=(calcall,ts,noeigen) freq wb97xd/def2tzvpp geom=connectivity
 ------------------------------------------------------------------

 PL2 OH attack modify TS with deprotonated LG and deprotonated attackin
 g OH
 ----------------------------------------------------------------------
 Symbolic Z-matrix:
 Charge = -2 Multiplicity = 1

 SCF Done:  E(RwB97XD) =  -1053.22197980     A.U. after   16 cycles
 SCF Done:  E(RwB97XD) =  -1053.24571848     A.U. after   15 cycles
 SCF Done:  E(RwB97XD) =  -1053.26024020     A.U. after   15 cycles
 SCF Done:  E(RwB97XD) =  -1053.26757931     A.U. after   14 cycles
 SCF Done:  E(RwB97XD) =  -1053.27152288     A.U. after   15 cycles
 SCF Done:  E(RwB97XD) =  -1053.27274826     A.U. after   13 cycles
 SCF Done:  E(RwB97XD) =  -1053.27337197     A.U. after   14 cycles
 SCF Done:  E(RwB97XD) =  -1053.27365351     A.U. after   13 cycles
 SCF Done:  E(RwB97XD) =  -1053.27375337     A.U. after   13 cycles
 SCF Done:  E(RwB97XD) =  -1053.27377496     A.U. after   12 cycles
 SCF Done:  E(RwB97XD) =  -1053.27378003     A.U. after   12 cycles
 SCF Done:  E(RwB97XD) =  -1053.27378097     A.U. after   11 cycles
 SCF Done:  E(RwB97XD) =  -1053.27378101     A.U. after    8 cycles
 Optimization completed.
    -- Stationary point found.
 ******    1 imaginary frequencies (negative Signs) ******
    1 imaginary frequencies ignored.
 Normal termination of Gaussian 16 at Fri Feb 16 02:35:55 2024.

 ----------------------------------------------------------------------
 #N Geom=AllCheck Guess=TCheck SCRF=Check GenChk RwB97XD/def2TZVPP Freq
 ----------------------------------------------------------------------

 ----------------------------------------------------------------------
 PL2 OH attack modify TS with deprotonated LG and deprotonated attackin
 g OH
 ----------------------------------------------------------------------
 Charge = -2 Multiplicity = 1

                         Standard orientation:
 ---------------------------------------------------------------------
 Center     Atomic      Atomic             Coordinates (Angstroms)
 Number     Number       Type             X           Y           Z
 ---------------------------------------------------------------------
      1          6           0        2.740659   -0.979262    0.890260
      2          1           0        2.124805   -1.777572    1.321247
      3          1           0        3.792262   -1.267560    0.925318
      4          6           0        2.347646   -0.839979   -0.554399
      5          1           0        2.121591    0.123684   -0.963165
      6          1           0        2.345066   -1.697435   -1.194623
      7          8           0        2.600907    0.215075    1.627456
      8          8           0        4.226498   -0.550058   -1.273451
      9          1           0        4.460566    0.232507   -0.772263
     10         14           0       -0.766796   -0.179018   -0.130187
     11          8           0       -1.901991   -0.217314    1.195890
     12          1           0        1.699306    0.550631    1.430344
     13          8           0        0.465656   -1.187789   -0.271732
     14          8           0       -1.951328   -1.164015   -1.057409
     15          6           0       -3.049839   -0.956925    0.968184
     16          1           0       -3.919768   -0.483442    1.454221
     17          1           0       -2.952405   -1.976795    1.383347
     18          6           0       -3.217715   -1.040329   -0.551599
     19          1           0       -3.856309   -1.896474   -0.835077
     20          1           0       -3.727912   -0.120558   -0.909996
     21          8           0        0.156921    1.064386    0.881754
     22          6           0       -0.171364    2.353838    0.545301
     23          1           0        0.636040    3.059221    0.801205
     24          1           0       -1.088515    2.693351    1.068173
     25          6           0       -0.428807    2.328302   -0.962328
     26          8           0       -1.059284    1.126427   -1.241980
     27          1           0       -1.055261    3.176425   -1.284851
     28          1           0        0.533157    2.402701   -1.498002
 ---------------------------------------------------------------------

 SCF Done:  E(RwB97XD) =  -1053.27378101     A.U. after    1 cycles

 The electronic state is 1-A.
 Alpha  occ. eigenvalues --  -65.99067 -18.95477 -18.94780 -18.94741 -18.93133
 Alpha  occ. eigenvalues --  -18.92332 -18.86551 -18.86395 -10.06937 -10.06820
 Alpha  occ. eigenvalues --  -10.06460 -10.06396 -10.05654 -10.04651  -5.10170
 Alpha  occ. eigenvalues --   -3.44823  -3.44699  -3.44543  -0.85867  -0.83833
 Alpha  occ. eigenvalues --   -0.83231  -0.79363  -0.77973  -0.69418  -0.68534
 Alpha  occ. eigenvalues --   -0.55930  -0.54304  -0.54174  -0.43580  -0.42765
 Alpha  occ. eigenvalues --   -0.42321  -0.33716  -0.32094  -0.31448  -0.31141
 Alpha  occ. eigenvalues --   -0.29911  -0.29388  -0.27173  -0.25421  -0.25017
 Alpha  occ. eigenvalues --   -0.23915  -0.22341  -0.22114  -0.21617  -0.19979
 Alpha  occ. eigenvalues --   -0.17333  -0.14756  -0.13570  -0.12094  -0.11583
 Alpha  occ. eigenvalues --   -0.11102  -0.10121  -0.09148  -0.08585  -0.07890
 Alpha  occ. eigenvalues --   -0.06483  -0.05661  -0.05274  -0.03129  -0.02059
 Alpha  occ. eigenvalues --   -0.00390
 Alpha virt. eigenvalues --    0.33971   0.35136   0.37367   0.37810   0.38245
 Alpha virt. eigenvalues --    0.38586   0.38966   0.39308   0.40544   0.41818
 Alpha virt. eigenvalues --    0.42602   0.43599   0.43688   0.44367   0.45792

 Mulliken charges:
               1
     1  C    0.092410
     2  H    0.030478
     3  H    0.025711
     4  C    0.104539
     5  H    0.099226
     6  H    0.086672
     7  O   -0.498603
     8  O   -0.750370
     9  H    0.102800
    10  Si   0.764931
    11  O   -0.446715
    12  H    0.240015
    13  O   -0.631004
    14  O   -0.511220
    15  C    0.095951
    16  H   -0.027592
    17  H   -0.011532
    18  C    0.112938
    19  H   -0.024825
    20  H   -0.032831
    21  O   -0.518954
    22  C    0.089710
    23  H   -0.002523
    24  H   -0.018033
    25  C    0.077371
    26  O   -0.439882
    27  H   -0.018840
    28  H    0.010169
 Sum of Mulliken charges =  -2.00000

 Dipole moment (field-independent basis, Debye):
    X=             -7.6182    Y=              3.3492    Z=              2.5882  Tot=              8.7151
 Quadrupole moment (field-independent basis, Debye-Ang):
   XX=           -173.5008   YY=           -108.9774   ZZ=           -120.3369
   XY=              5.5573   XZ=              7.8016   YZ=             -5.6662

  Exact polarizability:     182.423       4.348     133.506      -8.209      -2.657     117.784
 Approx polarizability:     166.133       4.270     140.412      -7.013      -0.254     129.442

 ******    1 imaginary frequencies (negative Signs) ******

                      1                      2                      3
                      A                      A                      A
 Frequencies --   -623.1866                19.3904                36.7868
 Red. masses --      8.6195                 5.8559                 5.4424
 Frc consts  --      1.9723                 0.0013                 0.0043
 IR Inten    --   1463.9949                 0.4102                 3.0294

                      4                      5                      6
                      A                      A                      A
 Frequencies --     56.4117                72.2283               124.3624
 Red. masses --      3.3289                 5.6229                 4.2293
 Frc consts  --      0.0062                 0.0173                 0.0385
 IR Inten    --      2.2762                 2.4152                 2.6882

                      7                      8                      9
                      A                      A                      A
 Frequencies --    142.4800               152.9502               177.6133
 Red. masses --      3.4899                 3.5417                 4.5563
 Frc consts  --      0.0417                 0.0488                 0.0847
 IR Inten    --      0.7958                 4.3755                 4.8110

                     10                     11                     12
                      A                      A                      A
 Frequencies --    215.6567               224.8814               263.1585
 Red. masses --      6.0817                 3.9821                 1.9038
 Frc consts  --      0.1666                 0.1187                 0.0777
 IR Inten    --      4.4820                 9.6970                 3.5276

                     13                     14                     15
                      A                      A                      A
 Frequencies --    270.0262               290.7019               321.0443
 Red. masses --      2.6245                 1.5927                 4.0805
 Frc consts  --      0.1127                 0.0793                 0.2478
 IR Inten    --      0.5654                32.0115                38.1681

                     16                     17                     18
                      A                      A                      A
 Frequencies --    357.3959               362.8286               380.9868
 Red. masses --      3.5549                 6.8446                 6.2958
 Frc consts  --      0.2675                 0.5309                 0.5384
 IR Inten    --      5.7706                13.2960                10.4259

                     19                     20                     21
                      A                      A                      A
 Frequencies --    395.7434               423.5404               492.0109
 Red. masses --      4.1020                 7.4897                 2.4165
 Frc consts  --      0.3785                 0.7916                 0.3447
 IR Inten    --      2.7321                21.3764                 2.9988

                     22                     23                     24
                      A                      A                      A
 Frequencies --    509.6685               542.0024               583.2332
 Red. masses --      9.1387                 9.1352                10.8033
 Frc consts  --      1.3987                 1.5811                 2.1652
 IR Inten    --     12.9564               269.9315                21.7585

                     25                     26                     27
                      A                      A                      A
 Frequencies --    625.8085               641.2117               652.6614
 Red. masses --      3.1886                 3.2972                 3.8810
 Frc consts  --      0.7358                 0.7987                 0.9740
 IR Inten    --     11.6197               195.3932                 8.4810

                     28                     29                     30
                      A                      A                      A
 Frequencies --    693.9188               707.5903               851.6840
 Red. masses --      6.0244                 1.1314                 1.0790
 Frc consts  --      1.7092                 0.3337                 0.4611
 IR Inten    --    246.7612                50.0613                76.4194

                     31                     32                     33
                      A                      A                      A
 Frequencies --    893.5130               921.3564               925.5324
 Red. masses --      2.0148                 1.7983                 2.2600
 Frc consts  --      0.9477                 0.8994                 1.1406
 IR Inten    --     26.4525                 3.5074                25.6419

                     34                     35                     36
                      A                      A                      A
 Frequencies --    927.6267               930.5513               960.3558
 Red. masses --      2.0232                 2.1077                 3.5946
 Frc consts  --      1.0257                 1.0753                 1.9533
 IR Inten    --     31.9656                17.9369               572.4420

                     37                     38                     39
                      A                      A                      A
 Frequencies --   1007.5004              1058.0693              1080.8893
 Red. masses --      1.6741                 1.0495                 2.2554
 Frc consts  --      1.0012                 0.6922                 1.5525
 IR Inten    --     31.5352                 4.7740                 3.8228

                     40                     41                     42
                      A                      A                      A
 Frequencies --   1134.4835              1146.8052              1152.9325
 Red. masses --      3.3408                 2.8132                 2.3700
 Frc consts  --      2.5333                 2.1798                 1.8561
 IR Inten    --     77.2636               204.6304                15.2941

                     43                     44                     45
                      A                      A                      A
 Frequencies --   1153.7553              1165.8084              1177.1673
 Red. masses --      1.2719                 3.7592                 3.4638
 Frc consts  --      0.9976                 3.0103                 2.8280
 IR Inten    --     40.2993                13.1159                67.4695

                     46                     47                     48
                      A                      A                      A
 Frequencies --   1181.7383              1196.1446              1250.3255
 Red. masses --      3.3712                 3.5348                 1.1821
 Frc consts  --      2.7738                 2.9798                 1.0888
 IR Inten    --    131.8650               135.6008                 2.7756

                     49                     50                     51
                      A                      A                      A
 Frequencies --   1254.4015              1256.3327              1259.3262
 Red. masses --      1.1965                 1.2210                 1.1710
 Frc consts  --      1.1093                 1.1355                 1.0941
 IR Inten    --     24.2770                 3.3674                10.0021

                     52                     53                     54
                      A                      A                      A
 Frequencies --   1259.8012              1370.5514              1376.0913
 Red. masses --      1.1048                 1.3269                 1.3244
 Frc consts  --      1.0331                 1.4686                 1.4777
 IR Inten    --     13.1984                12.4026                12.1241

                     55                     56                     57
                      A                      A                      A
 Frequencies --   1379.0905              1384.7716              1389.0655
 Red. masses --      1.2658                 1.3390                 1.3358
 Frc consts  --      1.4184                 1.5128                 1.5186
 IR Inten    --      6.8870                22.2818                14.6483

                     58                     59                     60
                      A                      A                      A
 Frequencies --   1424.6368              1493.7577              1498.4153
 Red. masses --      1.2904                 1.1157                 1.0923
 Frc consts  --      1.5430                 1.4668                 1.4450
 IR Inten    --      3.1215                 1.1347                 0.9875

                     61                     62                     63
                      A                      A                      A
 Frequencies --   1499.2296              1506.3344              1509.5315
 Red. masses --      1.0924                 1.0968                 1.0953
 Frc consts  --      1.4467                 1.4662                 1.4705
 IR Inten    --      2.9988                10.5202                 2.5843

                     64                     65                     66
                      A                      A                      A
 Frequencies --   1541.8689              2832.8927              2857.2566
 Red. masses --      1.1223                 1.0750                 1.0729
 Frc consts  --      1.5720                 5.0828                 5.1609
 IR Inten    --     48.5605               149.2043               181.2184

                     67                     68                     69
                      A                      A                      A
 Frequencies --   2888.3659              2914.5019              2917.1210
 Red. masses --      1.0673                 1.0648                 1.0720
 Frc consts  --      5.2460                 5.3289                 5.3746
 IR Inten    --     91.6525               363.5990               224.0308

                     70                     71                     72
                      A                      A                      A
 Frequencies --   2929.2317              2941.2034              2950.0826
 Red. masses --      1.0944                 1.0863                 1.0944
 Frc consts  --      5.5326                 5.5368                 5.6117
 IR Inten    --    215.0125               338.0868               169.5584

                     73                     74                     75
                      A                      A                      A
 Frequencies --   3002.1174              3079.9265              3251.2589
 Red. masses --      1.0674                 1.0941                 1.0538
 Frc consts  --      5.6681                 6.1147                 6.5630
 IR Inten    --    102.4513                78.3898                 5.2338

                     76                     77                     78
                      A                      A                      A
 Frequencies --   3380.4630              3425.6269              3875.9032
 Red. masses --      1.1286                 1.0693                 1.0672
 Frc consts  --      7.5986                 7.3933                 9.4458
 IR Inten    --      7.9730               878.3874                11.3030

 - Thermochemistry -
 -------------------
 Temperature   298.150 Kelvin.  Pressure   1.00000 Atm.
 Atom     1 has atomic number  6 and mass  12.00000

 Molecular mass:   226.05088 amu.
 Principal axes and moments of inertia in atomic units:
                           1         2         3
     Eigenvalues --  1869.543224511.461734885.96249
           X            0.99999   0.00266  -0.00341
           Y           -0.00282   0.99883  -0.04817
           Z            0.00328   0.04818   0.99883
 This molecule is an asymmetric top.
 Rotational symmetry number  1.
 Warning -- assumption of classical behavior for rotation
           may cause significant error
 Rotational temperatures (Kelvin)      0.04633     0.01920     0.01773
 Rotational constants (GHZ):           0.96534     0.40003     0.36937
    1 imaginary frequencies ignored.
 Zero-point vibrational energy     571227.0 (Joules/Mol)
                                  136.52652 (Kcal/Mol)
 Warning -- explicit consideration of  23 degrees of freedom as
           vibrations may cause significant error
 Vibrational temperatures:     27.90    52.93    81.16   103.92   178.93
          (Kelvin)            205.00   220.06   255.55   310.28   323.55
                              378.63   388.51   418.26   461.91   514.21
                              522.03   548.16   569.39   609.38   707.89
                              733.30   779.82   839.14   900.40   922.56
                              939.03   998.39  1018.06  1225.38  1285.57
                             1325.63  1331.63  1334.65  1338.86  1381.74
                             1449.57  1522.33  1555.16  1632.27  1650.00
                             1658.81  1660.00  1677.34  1693.68  1700.26
                             1720.99  1798.94  1804.80  1807.58  1811.89
                             1812.57  1971.92  1979.89  1984.20  1992.38
                             1998.56  2049.73  2149.18  2155.89  2157.06
                             2167.28  2171.88  2218.41  4075.90  4110.95
                             4155.71  4193.32  4197.09  4214.51  4231.74
                             4244.51  4319.38  4431.33  4677.84  4863.73
                             4928.71  5576.56

 Zero-point correction=                           0.217569 (Hartree/Particle)
 Thermal correction to Energy=                    0.233002
 Thermal correction to Enthalpy=                  0.233946
 Thermal correction to Gibbs Free Energy=         0.173654
 Sum of electronic and zero-point Energies=          -1053.056212
 Sum of electronic and thermal Energies=             -1053.040779
 Sum of electronic and thermal Enthalpies=           -1053.039835
 Sum of electronic and thermal Free Energies=        -1053.100127

                     E (Thermal)             CV                S
                      KCal/Mol        Cal/Mol-Kelvin    Cal/Mol-Kelvin
 Total                  146.211             56.781            126.894
 Electronic               0.000              0.000              0.000
 Translational            0.889              2.981             42.149
 Rotational               0.889              2.981             32.088
 Vibrational            144.433             50.819             52.656
 Vibration     1          0.593              1.986              6.696
 Vibration     2          0.594              1.982              5.425
 Vibration     3          0.596              1.975              4.579
 Vibration     4          0.598              1.967              4.092
 Vibration     5          0.610              1.929              3.031
 Vibration     6          0.616              1.911              2.770
 Vibration     7          0.619              1.899              2.635
 Vibration     8          0.628              1.870              2.353
 Vibration     9          0.645              1.817              1.995
 Vibration    10          0.650              1.803              1.919
 Vibration    11          0.670              1.740              1.641
 Vibration    12          0.674              1.728              1.596
 Vibration    13          0.687              1.691              1.470
 Vibration    14          0.707              1.633              1.305
 Vibration    15          0.733              1.560              1.133
 Vibration    16          0.737              1.549              1.110
 Vibration    17          0.751              1.511              1.035
 Vibration    18          0.762              1.479              0.978
 Vibration    19          0.786              1.419              0.880
 Vibration    20          0.848              1.268              0.678
 Vibration    21          0.865              1.229              0.634
 Vibration    22          0.897              1.157              0.561
 Vibration    23          0.940              1.068              0.479

 Optimization completed.
    -- Stationary point found.
 Normal termination of Gaussian 16 at Fri Feb 16 09:41:20 2024.
