 Gaussian 16, Revision C.01,
 Gaussian 16:  ES64L-G16RevC.01  3-Jul-2019

 ------------------------------------------------------------------
 # opt=(calcall,ts,noeigen) freq wb97xd/def2tzvpp geom=connectivity
 ------------------------------------------------------------------

 ---------------------------------------------------------------------
 Convert EGOH attack on Q0 to attack on QbiL direct TS opt no freezing
 ---------------------------------------------------------------------
 Symbolic Z-matrix:
 Charge = -1 Multiplicity = 1

 SCF Done:  E(RwB97XD) =  -900.078463160     A.U. after   15 cycles
 SCF Done:  E(RwB97XD) =  -900.100063600     A.U. after   13 cycles
 SCF Done:  E(RwB97XD) =  -900.121798359     A.U. after   13 cycles
 SCF Done:  E(RwB97XD) =  -900.141814206     A.U. after   13 cycles
 SCF Done:  E(RwB97XD) =  -900.157536116     A.U. after   13 cycles
 SCF Done:  E(RwB97XD) =  -900.168948225     A.U. after   13 cycles
 SCF Done:  E(RwB97XD) =  -900.175012627     A.U. after   13 cycles
 SCF Done:  E(RwB97XD) =  -900.174750384     A.U. after   14 cycles
 SCF Done:  E(RwB97XD) =  -900.171901122     A.U. after   14 cycles
 SCF Done:  E(RwB97XD) =  -900.171270665     A.U. after   14 cycles
 SCF Done:  E(RwB97XD) =  -900.172388791     A.U. after   13 cycles
 SCF Done:  E(RwB97XD) =  -900.173055769     A.U. after   13 cycles
 SCF Done:  E(RwB97XD) =  -900.173582016     A.U. after   13 cycles
 SCF Done:  E(RwB97XD) =  -900.173843770     A.U. after   13 cycles
 SCF Done:  E(RwB97XD) =  -900.173853433     A.U. after   10 cycles
 SCF Done:  E(RwB97XD) =  -900.173853859     A.U. after    9 cycles
 SCF Done:  E(RwB97XD) =  -900.173853886     A.U. after    6 cycles
 Optimization completed.
    -- Stationary point found.
 ******    1 imaginary frequencies (negative Signs) ******
    1 imaginary frequencies ignored.
 Normal termination of Gaussian 16 at Mon Mar 18 01:30:18 2024.

 ----------------------------------------------------------------------
 #N Geom=AllCheck Guess=TCheck SCRF=Check GenChk RwB97XD/def2TZVPP Freq
 ----------------------------------------------------------------------

 Structure from the checkpoint file:  "MoveProtonsTryAgain.chk"
 ---------------------------------------------------------------------
 Convert EGOH attack on Q0 to attack on QbiL direct TS opt no freezing
 ---------------------------------------------------------------------
 Charge = -1 Multiplicity = 1

                         Standard orientation:
 ---------------------------------------------------------------------
 Center     Atomic      Atomic             Coordinates (Angstroms)
 Number     Number       Type             X           Y           Z
 ---------------------------------------------------------------------
      1         14           0        1.046479    0.599618   -0.023055
      2          8           0        1.749323   -0.616987   -0.929148
      3          8           0        2.312148    1.356157    0.785587
      4          1           0        2.670684    0.772505    1.448813
      5          8           0        0.546000    1.976099   -0.759538
      6          8           0        0.513210   -0.395022    1.233971
      7          6           0       -2.020822   -0.681612   -0.763211
      8          1           0       -1.789852   -1.768124   -0.717529
      9          1           0       -2.765100   -0.573608   -1.577032
     10          6           0       -2.720878   -0.309797    0.547745
     11          1           0       -2.101769   -0.627934    1.396033
     12          1           0       -3.698137   -0.799009    0.621470
     13          8           0       -0.929396    0.103959   -1.001561
     14          1           0       -0.248565    1.692721   -1.239076
     15          8           0       -2.927620    1.087581    0.599876
     16          1           0       -2.140372    1.434493    0.160860
     17          6           0        0.622173   -1.744840    0.861385
     18          1           0       -0.345711   -2.248614    0.955656
     19          1           0        1.323605   -2.239350    1.546111
     20          6           0        1.142561   -1.838641   -0.600520
     21          1           0        1.880873   -2.642227   -0.692017
     22          1           0        0.316121   -2.040450   -1.286415
 ---------------------------------------------------------------------

 SCF Done:  E(RwB97XD) =  -900.173853886     A.U. after    1 cycles

 The electronic state is 1-A.
 Alpha  occ. eigenvalues --  -66.15083 -19.09284 -19.08829 -19.08760 -19.07181
 Alpha  occ. eigenvalues --  -19.07099 -19.01600 -10.19861 -10.19346 -10.17167
 Alpha  occ. eigenvalues --  -10.16338  -5.26436  -3.61111  -3.60936  -3.60769
 Alpha  occ. eigenvalues --   -0.99651  -0.97478  -0.94102  -0.93832  -0.91950
 Alpha  occ. eigenvalues --   -0.87890  -0.68590  -0.65865  -0.56735  -0.53855
 Alpha  occ. eigenvalues --   -0.49205  -0.45428  -0.44601  -0.43797  -0.41805
 Alpha  occ. eigenvalues --   -0.39407  -0.38863  -0.37543  -0.37060  -0.35808
 Alpha  occ. eigenvalues --   -0.34322  -0.32839  -0.30109  -0.28153  -0.27462
 Alpha  occ. eigenvalues --   -0.26392  -0.25892  -0.25393  -0.24677  -0.22736
 Alpha  occ. eigenvalues --   -0.21375  -0.20081  -0.15696  -0.15033
 Alpha virt. eigenvalues --    0.23550   0.24335   0.25871   0.27050   0.28653
 Alpha virt. eigenvalues --    0.28812   0.29786   0.31099   0.32603   0.33066
 Alpha virt. eigenvalues --    0.33652   0.35995   0.36700   0.37457   0.37740

 Mulliken charges:
               1
     1  Si   0.865776
     2  O   -0.405989
     3  O   -0.472191
     4  H    0.141113
     5  O   -0.451686
     6  O   -0.439736
     7  C    0.079754
     8  H   -0.043316
     9  H    0.017289
    10  C    0.098719
    11  H    0.038040
    12  H    0.024656
    13  O   -0.695293
    14  H    0.199503
    15  O   -0.429085
    16  H    0.198600
    17  C    0.050326
    18  H    0.025549
    19  H    0.044466
    20  C    0.067854
    21  H    0.032728
    22  H    0.052923
 Sum of Mulliken charges =  -1.00000

 Dipole moment (field-independent basis, Debye):
    X=              0.5382    Y=             -4.7704    Z=              1.1719  Tot=              4.9416
 Quadrupole moment (field-independent basis, Debye-Ang):
   XX=            -97.2143   YY=            -84.4645   ZZ=            -81.7964
   XY=             -2.4394   XZ=              5.0540   YZ=             -2.2693

  Exact polarizability:     103.824       2.051     100.531       2.535      -1.353      84.990
 Approx polarizability:     101.947       3.305     107.908       1.539      -2.173      94.714

 ******    1 imaginary frequencies (negative Signs) ******

                      1                      2                      3
                      A                      A                      A
 Frequencies --   -168.4196                61.1587                65.4958
 Red. masses --      6.9164                 7.0115                 4.2651
 Frc consts  --      0.1156                 0.0155                 0.0108
 IR Inten    --     92.9129                 1.3369                 3.3369

                      4                      5                      6
                      A                      A                      A
 Frequencies --     87.7873               116.9760               135.7133
 Red. masses --      5.4574                 3.2534                 2.5466
 Frc consts  --      0.0248                 0.0262                 0.0276
 IR Inten    --      1.4033                16.9419                 3.9523

                      7                      8                      9
                      A                      A                      A
 Frequencies --    190.8348               229.1297               254.6073
 Red. masses --      3.8612                 3.0614                 2.5959
 Frc consts  --      0.0828                 0.0947                 0.0991
 IR Inten    --      2.9865                11.5502                 5.7687

                     10                     11                     12
                      A                      A                      A
 Frequencies --    275.3731               331.7317               363.2498
 Red. masses --      4.6608                 2.9328                 2.8342
 Frc consts  --      0.2082                 0.1902                 0.2203
 IR Inten    --     23.5171                 1.6633                33.4238

                     13                     14                     15
                      A                      A                      A
 Frequencies --    393.6439               399.2296               427.9503
 Red. masses --      4.1592                 2.5397                 4.0749
 Frc consts  --      0.3797                 0.2385                 0.4397
 IR Inten    --     45.5403                44.1510                15.2483

                     16                     17                     18
                      A                      A                      A
 Frequencies --    501.2442               552.5168               577.7840
 Red. masses --     10.8168                 1.2936                 1.9516
 Frc consts  --      1.6012                 0.2327                 0.3839
 IR Inten    --     12.1370                46.9224                43.3889

                     19                     20                     21
                      A                      A                      A
 Frequencies --    652.9083               711.5171               758.7804
 Red. masses --      4.5058                10.3647                 2.0826
 Frc consts  --      1.1317                 3.0916                 0.7065
 IR Inten    --      5.1694                 3.6371                18.2029

                     22                     23                     24
                      A                      A                      A
 Frequencies --    787.5743               814.7966               877.6711
 Red. masses --      1.9974                 4.7687                 1.6371
 Frc consts  --      0.7299                 1.8653                 0.7430
 IR Inten    --    310.9927               268.0869                22.8923

                     25                     26                     27
                      A                      A                      A
 Frequencies --    882.4440               906.7775               915.8510
 Red. masses --      1.9282                 1.7759                 2.4956
 Frc consts  --      0.8847                 0.8603                 1.2333
 IR Inten    --     17.4431                17.1187                48.3671

                     28                     29                     30
                      A                      A                      A
 Frequencies --    923.7571              1003.8048              1092.3094
 Red. masses --      2.3424                 2.2628                 2.5809
 Frc consts  --      1.1777                 1.3434                 1.8143
 IR Inten    --     76.1959               178.0540                62.0196

                     31                     32                     33
                      A                      A                      A
 Frequencies --   1127.5147              1137.6379              1143.5776
 Red. masses --      4.1147                 3.6711                 2.5920
 Frc consts  --      3.0820                 2.7993                 1.9972
 IR Inten    --     51.4312                29.5536                 0.1571

                     34                     35                     36
                      A                      A                      A
 Frequencies --   1156.1557              1167.7017              1198.4973
 Red. masses --      1.6894                 2.0133                 2.4157
 Frc consts  --      1.3305                 1.6174                 2.0444
 IR Inten    --    442.6835               302.4835                24.5835

                     37                     38                     39
                      A                      A                      A
 Frequencies --   1235.3025              1263.4340              1272.6174
 Red. masses --      1.3508                 1.0961                 1.1309
 Frc consts  --      1.2144                 1.0309                 1.0791
 IR Inten    --     66.9238                 9.1051                 1.7357

                     40                     41                     42
                      A                      A                      A
 Frequencies --   1286.8609              1371.4823              1390.1991
 Red. masses --      1.1440                 1.2082                 1.2698
 Frc consts  --      1.1162                 1.3390                 1.4459
 IR Inten    --      3.6730                10.8668                 7.8035

                     43                     44                     45
                      A                      A                      A
 Frequencies --   1396.2906              1401.3788              1442.4779
 Red. masses --      1.2459                 1.2557                 1.2876
 Frc consts  --      1.4311                 1.4530                 1.5785
 IR Inten    --     18.2972                13.1346                84.0247

                     46                     47                     48
                      A                      A                      A
 Frequencies --   1496.5821              1501.9306              1520.2565
 Red. masses --      1.0852                 1.0951                 1.0873
 Frc consts  --      1.4321                 1.4554                 1.4806
 IR Inten    --      2.7294                 2.5895                 1.4147

                     49                     50                     51
                      A                      A                      A
 Frequencies --   1536.9661              2837.7885              2869.3403
 Red. masses --      1.0858                 1.0733                 1.0789
 Frc consts  --      1.5113                 5.0926                 5.2335
 IR Inten    --      2.8781               171.9114               208.0106

                     52                     53                     54
                      A                      A                      A
 Frequencies --   2979.6686              2999.0062              3022.7874
 Red. masses --      1.0689                 1.0595                 1.0633
 Frc consts  --      5.5913                 5.6146                 5.7244
 IR Inten    --     88.9710                90.8132               162.2628

                     55                     56                     57
                      A                      A                      A
 Frequencies --   3031.0175              3045.3368              3077.5126
 Red. masses --      1.0932                 1.1041                 1.1003
 Frc consts  --      5.9174                 6.0328                 6.1399
 IR Inten    --     42.0907               110.7449                71.5251

                     58                     59                     60
                      A                      A                      A
 Frequencies --   3676.9820              3762.2826              3979.6307
 Red. masses --      1.0639                 1.0640                 1.0654
 Frc consts  --      8.4751                 8.8737                 9.9415
 IR Inten    --    265.4502                87.0433                22.4706

 - Thermochemistry -
 -------------------
 Temperature   298.150 Kelvin.  Pressure   1.00000 Atm.
 Atom     1 has atomic number 14 and mass  27.97693

 Molecular mass:   183.03249 amu.
 Principal axes and moments of inertia in atomic units:
                           1         2         3
     Eigenvalues --  1292.276382310.147152763.99075
           X            0.99995   0.00063   0.01018
           Y           -0.00054   0.99996  -0.00885
           Z           -0.01018   0.00884   0.99991
 This molecule is an asymmetric top.
 Rotational symmetry number  1.
 Warning -- assumption of classical behavior for rotation
           may cause significant error
 Rotational temperatures (Kelvin)      0.06702     0.03749     0.03134
 Rotational constants (GHZ):           1.39656     0.78122     0.65295
    1 imaginary frequencies ignored.
 Zero-point vibrational energy     452313.0 (Joules/Mol)
                                  108.10541 (Kcal/Mol)
 Warning -- explicit consideration of  17 degrees of freedom as
           vibrations may cause significant error
 Vibrational temperatures:     87.99    94.23   126.31   168.30   195.26
          (Kelvin)            274.57   329.67   366.32   396.20   477.29
                              522.64   566.37   574.40   615.72   721.18
                              794.95   831.30   939.39  1023.71  1091.72
                             1133.14  1172.31  1262.77  1269.64  1304.65
                             1317.71  1329.08  1444.25  1571.59  1622.24
                             1636.81  1645.35  1663.45  1680.06  1724.37
                             1777.32  1817.80  1831.01  1851.51  1973.26
                             2000.19  2008.95  2016.27  2075.40  2153.25
                             2160.94  2187.31  2211.35  4082.94  4128.34
                             4287.08  4314.90  4349.12  4360.96  4381.56
                             4427.85  5290.36  5413.09  5725.80

 Zero-point correction=                           0.172277 (Hartree/Particle)
 Thermal correction to Energy=                    0.184147
 Thermal correction to Enthalpy=                  0.185091
 Thermal correction to Gibbs Free Energy=         0.134065
 Sum of electronic and zero-point Energies=           -900.001577
 Sum of electronic and thermal Energies=              -899.989707
 Sum of electronic and thermal Enthalpies=            -899.988763
 Sum of electronic and thermal Free Energies=         -900.039789

                     E (Thermal)             CV                S
                      KCal/Mol        Cal/Mol-Kelvin    Cal/Mol-Kelvin
 Total                  115.554             43.630            107.394
 Electronic               0.000              0.000              0.000
 Translational            0.889              2.981             41.520
 Rotational               0.889              2.981             30.490
 Vibrational            113.777             37.668             35.383
 Vibration     1          0.597              1.973              4.419
 Vibration     2          0.597              1.971              4.284
 Vibration     3          0.601              1.958              3.709
 Vibration     4          0.608              1.935              3.150
 Vibration     5          0.614              1.918              2.863
 Vibration     6          0.634              1.853              2.220
 Vibration     7          0.652              1.797              1.886
 Vibration     8          0.665              1.755              1.698
 Vibration     9          0.677              1.719              1.562
 Vibration    10          0.714              1.612              1.252
 Vibration    11          0.737              1.548              1.108
 Vibration    12          0.761              1.484              0.986
 Vibration    13          0.765              1.472              0.965
 Vibration    14          0.789              1.409              0.865
 Vibration    15          0.857              1.247              0.655
 Vibration    16          0.908              1.134              0.539
 Vibration    17          0.934              1.079              0.489

 Optimization completed.
    -- Stationary point found.
 Normal termination of Gaussian 16 at Mon Mar 18 02:46:29 2024.
