 Gaussian 16, Revision C.01,
 Gaussian 16:  ES64L-G16RevC.01  3-Jul-2019

 ------------------------------------------------------------------
 # opt=(calcall,ts,noeigen) freq wb97xd/def2tzvpp geom=connectivity
 ------------------------------------------------------------------

 ---------------------------------------------------------------------
 Convert EGOH attack on Q0 to attack on QbiL direct TS opt no freezing
 ---------------------------------------------------------------------
 Symbolic Z-matrix:
 Charge =  0 Multiplicity = 1

 SCF Done:  E(RwB97XD) =  -900.547171849     A.U. after   16 cycles
 SCF Done:  E(RwB97XD) =  -900.585058664     A.U. after   13 cycles
 SCF Done:  E(RwB97XD) =  -900.621666254     A.U. after   12 cycles
 SCF Done:  E(RwB97XD) =  -900.651984711     A.U. after   12 cycles
 SCF Done:  E(RwB97XD) =  -900.672740067     A.U. after   12 cycles
 SCF Done:  E(RwB97XD) =  -900.681093355     A.U. after   12 cycles
 SCF Done:  E(RwB97XD) =  -900.682445633     A.U. after   11 cycles
 SCF Done:  E(RwB97XD) =  -900.682730476     A.U. after   11 cycles
 SCF Done:  E(RwB97XD) =  -900.682765321     A.U. after   10 cycles
 SCF Done:  E(RwB97XD) =  -900.682765970     A.U. after    8 cycles
 Optimization completed.
    -- Stationary point found.
 ******    1 imaginary frequencies (negative Signs) ******
    1 imaginary frequencies ignored.
 Normal termination of Gaussian 16 at Wed Feb 21 08:14:36 2024.

 ----------------------------------------------------------------------
 #N Geom=AllCheck Guess=TCheck SCRF=Check GenChk RwB97XD/def2TZVPP Freq
 ----------------------------------------------------------------------

 Structure from the checkpoint file:  "Convert_EGOHattQ0_toQL_noFreezing_directTSopt.chk"
 ---------------------------------------------------------------------
 Convert EGOH attack on Q0 to attack on QbiL direct TS opt no freezing
 ---------------------------------------------------------------------
 Charge =  0 Multiplicity = 1

                         Standard orientation:
 ---------------------------------------------------------------------
 Center     Atomic      Atomic             Coordinates (Angstroms)
 Number     Number       Type             X           Y           Z
 ---------------------------------------------------------------------
      1         14           0        0.574308    0.559325   -0.074915
      2          8           0        1.677518   -0.064323   -1.125589
      3          8           0        1.559653    2.078730    0.494241
      4          1           0        2.267992    2.338203   -0.096649
      5          8           0       -0.525768    1.681244   -0.293261
      6          1           0        0.536256    2.407049    0.133236
      7          8           0        0.781322   -0.466809    1.190867
      8          6           0       -1.871151   -1.428056   -0.018202
      9          1           0       -1.333208   -2.061664    0.683138
     10          1           0       -2.531090   -2.042874   -0.632642
     11          6           0       -2.657866   -0.340696    0.702514
     12          1           0       -2.047298    0.087930    1.502603
     13          1           0       -3.542294   -0.788758    1.159746
     14          8           0       -0.885472   -0.848259   -0.887079
     15          1           0       -1.370925   -0.270567   -1.487293
     16          8           0       -3.070609    0.650990   -0.202510
     17          1           0       -2.328175    1.275745   -0.272475
     18          6           0        1.913178   -1.285296    0.912180
     19          1           0        1.745840   -2.281123    1.322520
     20          1           0        2.793029   -0.850641    1.394393
     21          6           0        2.093491   -1.327152   -0.616662
     22          1           0        3.134191   -1.496773   -0.890885
     23          1           0        1.476310   -2.112466   -1.059216
 ---------------------------------------------------------------------

 SCF Done:  E(RwB97XD) =  -900.682765971     A.U. after    1 cycles

 The electronic state is 1-A.
 Alpha  occ. eigenvalues --  -66.31613 -19.29827 -19.27941 -19.25465 -19.25457
 Alpha  occ. eigenvalues --  -19.23221 -19.20039 -10.34695 -10.34515 -10.34307
 Alpha  occ. eigenvalues --  -10.32627  -5.43236  -3.77977  -3.77766  -3.77418
 Alpha  occ. eigenvalues --   -1.17790  -1.16080  -1.14086  -1.11126  -1.10108
 Alpha  occ. eigenvalues --   -1.02721  -0.84673  -0.84241  -0.72712  -0.72349
 Alpha  occ. eigenvalues --   -0.66706  -0.64403  -0.62079  -0.60580  -0.60070
 Alpha  occ. eigenvalues --   -0.58138  -0.56840  -0.54223  -0.53027  -0.52504
 Alpha  occ. eigenvalues --   -0.50872  -0.49783  -0.48912  -0.47519  -0.45776
 Alpha  occ. eigenvalues --   -0.43721  -0.42438  -0.41241  -0.40441  -0.39715
 Alpha  occ. eigenvalues --   -0.38673  -0.37505  -0.36846  -0.34948
 Alpha virt. eigenvalues --    0.08503   0.11251   0.11983   0.13397   0.14847
 Alpha virt. eigenvalues --    0.15400   0.16473   0.16861   0.18157   0.19179
 Alpha virt. eigenvalues --    0.19770   0.20555   0.20984   0.21112   0.22855

 Mulliken charges:
               1
     1  Si   0.843540
     2  O   -0.410671
     3  O   -0.338626
     4  H    0.179017
     5  O   -0.658332
     6  H    0.283584
     7  O   -0.399057
     8  C    0.003542
     9  H    0.078676
    10  H    0.105958
    11  C    0.047601
    12  H    0.083897
    13  H    0.076629
    14  O   -0.266312
    15  H    0.185622
    16  O   -0.415721
    17  H    0.234048
    18  C    0.015703
    19  H    0.073433
    20  H    0.080703
    21  C    0.042737
    22  H    0.080623
    23  H    0.073405
 Sum of Mulliken charges =  -0.00000

 Dipole moment (field-independent basis, Debye):
    X=              2.7686    Y=             -2.7072    Z=             -0.0395  Tot=              3.8724
 Quadrupole moment (field-independent basis, Debye-Ang):
   XX=            -70.4276   YY=            -66.4656   ZZ=            -74.4087
   XY=              6.3344   XZ=             -1.5058   YZ=             -2.0364

  Exact polarizability:     102.427      -0.081      92.683       0.215      -0.928      78.294
 Approx polarizability:     101.205      -0.595      98.317       0.783      -2.480      90.778

 ******    1 imaginary frequencies (negative Signs) ******

                      1                      2                      3
                      A                      A                      A
 Frequencies --  -1121.1864                52.1916                69.4606
 Red. masses --      1.1557                 4.8543                 4.3005
 Frc consts  --      0.8559                 0.0078                 0.0122
 IR Inten    --   1424.8278                 1.0808                 7.1047

                      4                      5                      6
                      A                      A                      A
 Frequencies --     99.0342               114.3774               172.0770
 Red. masses --      3.8275                 4.6238                 4.2591
 Frc consts  --      0.0221                 0.0356                 0.0743
 IR Inten    --      3.5504                32.7422                11.7405

                      7                      8                      9
                      A                      A                      A
 Frequencies --    174.2977               187.3130               195.8569
 Red. masses --      4.6549                 3.5351                 2.8974
 Frc consts  --      0.0833                 0.0731                 0.0655
 IR Inten    --      4.0320                 6.0887                20.7181

                     10                     11                     12
                      A                      A                      A
 Frequencies --    233.9708               283.7361               294.9947
 Red. masses --      3.5121                 4.1682                 3.8555
 Frc consts  --      0.1133                 0.1977                 0.1977
 IR Inten    --     33.1406                 1.8386                18.1024

                     13                     14                     15
                      A                      A                      A
 Frequencies --    346.1451               356.1933               450.6544
 Red. masses --      3.3719                 7.2194                 6.1912
 Frc consts  --      0.2380                 0.5397                 0.7408
 IR Inten    --     26.0908                 2.1984                36.9159

                     16                     17                     18
                      A                      A                      A
 Frequencies --    505.1915               548.8600               569.3526
 Red. masses --      5.6262                 2.0512                 1.2744
 Frc consts  --      0.8460                 0.3641                 0.2434
 IR Inten    --    754.1183                10.9018                23.4896

                     19                     20                     21
                      A                      A                      A
 Frequencies --    618.7977               630.5682               725.8687
 Red. masses --      2.5308                 1.5866                 2.8875
 Frc consts  --      0.5710                 0.3717                 0.8964
 IR Inten    --     10.5567               151.1730               197.6993

                     22                     23                     24
                      A                      A                      A
 Frequencies --    746.9028               812.2123               846.5988
 Red. masses --      2.0709                 3.2681                 1.3604
 Frc consts  --      0.6807                 1.2702                 0.5745
 IR Inten    --     39.2237                26.4658                45.8119

                     25                     26                     27
                      A                      A                      A
 Frequencies --    860.5303               874.7907               897.5990
 Red. masses --      2.1507                 1.6764                 2.5049
 Frc consts  --      0.9383                 0.7558                 1.1890
 IR Inten    --     47.2846                11.0370                78.2610

                     28                     29                     30
                      A                      A                      A
 Frequencies --    906.1383               924.1643              1065.9194
 Red. masses --      2.3767                 2.6663                 3.4839
 Frc consts  --      1.1498                 1.3417                 2.3322
 IR Inten    --     33.9064                20.1858                92.9457

                     31                     32                     33
                      A                      A                      A
 Frequencies --   1093.3092              1094.9738              1105.4473
 Red. masses --      2.8031                 3.0346                 5.7742
 Frc consts  --      1.9741                 2.1437                 4.1573
 IR Inten    --     23.9680               105.4835                13.2151

                     34                     35                     36
                      A                      A                      A
 Frequencies --   1135.2198              1150.9650              1157.0332
 Red. masses --      3.8467                 2.2675                 3.6497
 Frc consts  --      2.9208                 1.7698                 2.8787
 IR Inten    --     43.6288               139.5470               499.7151

                     37                     38                     39
                      A                      A                      A
 Frequencies --   1234.9194              1265.8547              1269.2556
 Red. masses --      1.1792                 1.1193                 1.1459
 Frc consts  --      1.0596                 1.0567                 1.0877
 IR Inten    --     15.1867                 1.8212                18.4911

                     40                     41                     42
                      A                      A                      A
 Frequencies --   1272.4653              1387.6731              1390.0831
 Red. masses --      1.1867                 1.2447                 1.2356
 Frc consts  --      1.1321                 1.4122                 1.4067
 IR Inten    --      6.0171                 0.8950                 3.1204

                     43                     44                     45
                      A                      A                      A
 Frequencies --   1403.7141              1405.2536              1412.9250
 Red. masses --      1.2494                 1.0981                 1.2020
 Frc consts  --      1.4505                 1.2776                 1.4139
 IR Inten    --      4.7418                57.5152                13.6885

                     46                     47                     48
                      A                      A                      A
 Frequencies --   1430.2626              1479.8597              1495.8614
 Red. masses --      1.3139                 1.1762                 1.0888
 Frc consts  --      1.5835                 1.5176                 1.4354
 IR Inten    --     26.6272                31.5627                 9.5067

                     49                     50                     51
                      A                      A                      A
 Frequencies --   1506.2552              1519.3832              1527.0482
 Red. masses --      1.0855                 1.0854                 1.0887
 Frc consts  --      1.4510                 1.4763                 1.4958
 IR Inten    --      5.7610                 5.1990                 1.2257

                     52                     53                     54
                      A                      A                      A
 Frequencies --   2059.6624              3045.2183              3046.6743
 Red. masses --      1.0454                 1.0610                 1.0647
 Frc consts  --      2.6129                 5.7968                 5.8228
 IR Inten    --    173.0030                30.0123                50.5346

                     55                     56                     57
                      A                      A                      A
 Frequencies --   3059.1738              3071.9524              3101.2413
 Red. masses --      1.0623                 1.0677                 1.1012
 Frc consts  --      5.8575                 5.9363                 6.2399
 IR Inten    --     36.0614                20.4136                53.8568

                     58                     59                     60
                      A                      A                      A
 Frequencies --   3109.8138              3125.6358              3155.4801
 Red. masses --      1.0993                 1.1074                 1.1035
 Frc consts  --      6.2635                 6.3744                 6.4736
 IR Inten    --     32.1678                35.6032                14.1206

                     61                     62                     63
                      A                      A                      A
 Frequencies --   3612.2321              3806.8108              3915.6057
 Red. masses --      1.0674                 1.0651                 1.0658
 Frc consts  --      8.2063                 9.0943                 9.6280
 IR Inten    --    439.7712                75.4072                79.5942

 - Thermochemistry -
 -------------------
 Temperature   298.150 Kelvin.  Pressure   1.00000 Atm.
 Atom     1 has atomic number 14 and mass  27.97693

 Molecular mass:   184.04032 amu.
 Principal axes and moments of inertia in atomic units:
                           1         2         3
     Eigenvalues --  1217.908802319.481412862.06957
           X            0.99999   0.00125  -0.00459
           Y           -0.00129   0.99996  -0.00937
           Z            0.00458   0.00938   0.99995
 This molecule is an asymmetric top.
 Rotational symmetry number  1.
 Warning -- assumption of classical behavior for rotation
           may cause significant error
 Rotational temperatures (Kelvin)      0.07112     0.03734     0.03026
 Rotational constants (GHZ):           1.48184     0.77808     0.63057
    1 imaginary frequencies ignored.
 Zero-point vibrational energy     480965.0 (Joules/Mol)
                                  114.95338 (Kcal/Mol)
 Warning -- explicit consideration of  18 degrees of freedom as
           vibrations may cause significant error
 Vibrational temperatures:     75.09    99.94   142.49   164.56   247.58
          (Kelvin)            250.78   269.50   281.79   336.63   408.23
                              424.43   498.03   512.48   648.39   726.86
                              789.69   819.17   890.31   907.25  1044.36
                             1074.63  1168.59  1218.07  1238.11  1258.63
                             1291.44  1303.73  1329.67  1533.62  1573.03
                             1575.42  1590.49  1633.33  1655.98  1664.71
                             1776.77  1821.28  1826.18  1830.79  1996.55
                             2000.02  2019.63  2021.85  2032.88  2057.83
                             2129.19  2152.21  2167.17  2186.05  2197.08
                             2963.39  4381.39  4383.48  4401.47  4419.85
                             4461.99  4474.33  4497.09  4540.03  5197.20
                             5477.15  5633.68

 Zero-point correction=                           0.183190 (Hartree/Particle)
 Thermal correction to Energy=                    0.195594
 Thermal correction to Enthalpy=                  0.196538
 Thermal correction to Gibbs Free Energy=         0.144478
 Sum of electronic and zero-point Energies=           -900.499576
 Sum of electronic and thermal Energies=              -900.487172
 Sum of electronic and thermal Enthalpies=            -900.486228
 Sum of electronic and thermal Free Energies=         -900.538288

                     E (Thermal)             CV                S
                      KCal/Mol        Cal/Mol-Kelvin    Cal/Mol-Kelvin
 Total                  122.737             45.211            109.569
 Electronic               0.000              0.000              0.000
 Translational            0.889              2.981             41.536
 Rotational               0.889              2.981             30.470
 Vibrational            120.959             39.249             37.563
 Vibration     1          0.596              1.977              4.733
 Vibration     2          0.598              1.969              4.169
 Vibration     3          0.604              1.950              3.473
 Vibration     4          0.607              1.938              3.193
 Vibration     5          0.626              1.877              2.413
 Vibration     6          0.627              1.874              2.389
 Vibration     7          0.632              1.857              2.254
 Vibration     8          0.636              1.846              2.172
 Vibration     9          0.654              1.789              1.848
 Vibration    10          0.682              1.704              1.511
 Vibration    11          0.689              1.683              1.445
 Vibration    12          0.724              1.583              1.184
 Vibration    13          0.732              1.563              1.139
 Vibration    14          0.809              1.359              0.794
 Vibration    15          0.860              1.238              0.645
 Vibration    16          0.904              1.142              0.547
 Vibration    17          0.925              1.098              0.505
 Vibration    18          0.979              0.992              0.418

 Optimization completed.
    -- Stationary point found.
 Normal termination of Gaussian 16 at Wed Feb 21 09:53:26 2024.
