 Gaussian 16, Revision C.01,
 Gaussian 16:  ES64L-G16RevC.01  3-Jul-2019

 -----------------------------------------------------------------
 # opt=(calcfc,ts,noeigen) freq wb97xd/def2tzvpp geom=connectivity
 -----------------------------------------------------------------

 Take TS opt from hydroxyl loss of HbiL2moL collapse deprotonated and r
 eprotonate free ligand hydroxyl
 ----------------------------------------------------------------------
 Symbolic Z-matrix:
 Charge = -2 Multiplicity = 1

 SCF Done:  E(RwB97XD) =  -899.431532114     A.U. after   16 cycles
 SCF Done:  E(RwB97XD) =  -899.434951268     A.U. after   14 cycles
 SCF Done:  E(RwB97XD) =  -899.436133964     A.U. after   14 cycles
 SCF Done:  E(RwB97XD) =  -899.436039299     A.U. after   15 cycles
 SCF Done:  E(RwB97XD) =  -899.436229668     A.U. after   14 cycles
 SCF Done:  E(RwB97XD) =  -899.436336066     A.U. after   13 cycles
 SCF Done:  E(RwB97XD) =  -899.436340437     A.U. after   13 cycles
 SCF Done:  E(RwB97XD) =  -899.436348172     A.U. after   12 cycles
 SCF Done:  E(RwB97XD) =  -899.436348400     A.U. after   10 cycles
 SCF Done:  E(RwB97XD) =  -899.436348708     A.U. after    9 cycles
 Optimization completed.
    -- Stationary point found.
 Normal termination of Gaussian 16 at Thu Mar 21 06:56:28 2024.

 ----------------------------------------------------------------------
 #N Geom=AllCheck Guess=TCheck SCRF=Check GenChk RwB97XD/def2TZVPP Freq
 ----------------------------------------------------------------------

 ----------------------------------------------------------------------
 Take TS opt from hydroxyl loss of HbiL2moL collapse deprotonated and r
 eprotonate free ligand hydroxyl
 ----------------------------------------------------------------------
 Charge = -2 Multiplicity = 1

                         Standard orientation:
 ---------------------------------------------------------------------
 Center     Atomic      Atomic             Coordinates (Angstroms)
 Number     Number       Type             X           Y           Z
 ---------------------------------------------------------------------
      1         14           0       -0.022144   -0.440142   -0.028338
      2          8           0       -1.201746   -0.045934   -1.240344
      3          8           0        1.151481   -0.140660    1.233426
      4          8           0        1.284262   -0.267837   -1.211961
      5          8           0       -0.025153   -2.167821   -0.119427
      6          8           0       -1.260366   -0.291751    1.196250
      7          6           0       -2.510971   -0.013372    0.686909
      8          1           0       -3.121210   -0.938054    0.600241
      9          1           0       -3.059712    0.679531    1.349380
     10          6           0       -2.299200    0.605544   -0.699479
     11          1           0       -3.190173    0.461890   -1.338014
     12          1           0       -2.068992    1.674237   -0.583753
     13          6           0        2.325615    0.491195   -0.697769
     14          1           0        3.269409    0.272316   -1.231286
     15          1           0        2.079269    1.559948   -0.760155
     16          6           0        2.429818    0.104555    0.782394
     17          1           0        3.068116   -0.800602    0.891959
     18          1           0        2.905417    0.911835    1.365896
     19          8           0        0.048918    2.341616    0.070026
     20          1           0        0.120944    2.153661    1.006650
     21          1           0        0.656209   -2.361218   -0.760257
 ---------------------------------------------------------------------

 SCF Done:  E(RwB97XD) =  -899.436348708     A.U. after    1 cycles

 The electronic state is 1-A.
 Alpha  occ. eigenvalues --  -65.98085 -18.90233 -18.90075 -18.89995 -18.89973
 Alpha  occ. eigenvalues --  -18.89504 -18.78112 -10.03149 -10.02953 -10.01645
 Alpha  occ. eigenvalues --  -10.01283  -5.08887  -3.43571  -3.43403  -3.43299
 Alpha  occ. eigenvalues --   -0.82075  -0.79913  -0.75791  -0.74922  -0.74106
 Alpha  occ. eigenvalues --   -0.59809  -0.51857  -0.49899  -0.39865  -0.37640
 Alpha  occ. eigenvalues --   -0.31286  -0.27930  -0.26929  -0.26289  -0.25973
 Alpha  occ. eigenvalues --   -0.23515  -0.21402  -0.20185  -0.18610  -0.17767
 Alpha  occ. eigenvalues --   -0.15705  -0.12562  -0.09292  -0.08827  -0.08003
 Alpha  occ. eigenvalues --   -0.07972  -0.06445  -0.06178  -0.05351  -0.03176
 Alpha  occ. eigenvalues --   -0.02355  -0.00877   0.05437   0.06034
 Alpha virt. eigenvalues --    0.37308   0.38010   0.40368   0.41314   0.42082
 Alpha virt. eigenvalues --    0.42751   0.43073   0.45417   0.47402   0.48335
 Alpha virt. eigenvalues --    0.49412   0.50386   0.52107   0.52931   0.53031

 Mulliken charges:
               1
     1  Si   0.804433
     2  O   -0.444308
     3  O   -0.439989
     4  O   -0.525711
     5  O   -0.493800
     6  O   -0.482937
     7  C    0.104235
     8  H   -0.043927
     9  H   -0.033156
    10  C    0.151914
    11  H   -0.053344
    12  H   -0.000623
    13  C    0.154283
    14  H   -0.054440
    15  H    0.003102
    16  C    0.071609
    17  H   -0.048229
    18  H   -0.023664
    19  O   -0.882319
    20  H    0.119097
    21  H    0.117774
 Sum of Mulliken charges =  -2.00000

 Dipole moment (field-independent basis, Debye):
    X=              0.6686    Y=             -3.7805    Z=              0.0262  Tot=              3.8393
 Quadrupole moment (field-independent basis, Debye-Ang):
   XX=            -95.4461   YY=           -109.6695   ZZ=            -92.3701
   XY=             -2.4056   XZ=             -0.3226   YZ=              3.3740

  Exact polarizability:     130.019      -0.543      99.640       0.062       1.724      91.930
 Approx polarizability:     118.720      -0.620     104.242      -0.577       1.904     103.191

 ******    1 imaginary frequencies (negative Signs) ******

                      1                      2                      3
                      A                      A                      A
 Frequencies --   -165.6575                90.5999               100.1146
 Red. masses --     11.7095                 2.9901                 3.0457
 Frc consts  --      0.1893                 0.0145                 0.0180
 IR Inten    --    100.9859                 7.8429                 8.3425

                      4                      5                      6
                      A                      A                      A
 Frequencies --    139.1789               159.3537               182.2181
 Red. masses --      5.2355                 4.8942                 7.8367
 Frc consts  --      0.0598                 0.0732                 0.1533
 IR Inten    --     25.0810                 8.8791                13.0009

                      7                      8                      9
                      A                      A                      A
 Frequencies --    213.4543               249.8871               287.0868
 Red. masses --      2.4140                 2.0656                 2.6131
 Frc consts  --      0.0648                 0.0760                 0.1269
 IR Inten    --     14.7422                 0.4052                 2.8877

                     10                     11                     12
                      A                      A                      A
 Frequencies --    287.6716               321.3288               331.8861
 Red. masses --      1.8052                 1.7244                 2.6539
 Frc consts  --      0.0880                 0.1049                 0.1722
 IR Inten    --     11.9417                43.9753                 8.5058

                     13                     14                     15
                      A                      A                      A
 Frequencies --    357.2455               399.0916               428.4643
 Red. masses --      3.9615                 3.5117                 6.7621
 Frc consts  --      0.2979                 0.3295                 0.7314
 IR Inten    --     14.4010                27.5499                 1.6023

                     16                     17                     18
                      A                      A                      A
 Frequencies --    450.5990               495.7540               583.6561
 Red. masses --      2.5611                 1.6187                10.0978
 Frc consts  --      0.3064                 0.2344                 2.0267
 IR Inten    --     99.3710                25.4528                41.3492

                     19                     20                     21
                      A                      A                      A
 Frequencies --    618.9162               635.0770               642.9856
 Red. masses --      3.2955                 3.4258                 4.9778
 Frc consts  --      0.7438                 0.8141                 1.2125
 IR Inten    --     21.0312                16.8477                12.1145

                     22                     23                     24
                      A                      A                      A
 Frequencies --    687.6145               714.0695               745.4636
 Red. masses --      5.1008                 7.4924                 8.5824
 Frc consts  --      1.4209                 2.2509                 2.8100
 IR Inten    --    190.4940               253.9742               479.2680

                     25                     26                     27
                      A                      A                      A
 Frequencies --    912.4180               925.7581               928.1328
 Red. masses --      1.7478                 1.9264                 2.3737
 Frc consts  --      0.8573                 0.9727                 1.2048
 IR Inten    --      4.6297                35.7320                15.0621

                     28                     29                     30
                      A                      A                      A
 Frequencies --    931.7555               997.1869              1137.0418
 Red. masses --      2.1453                 1.2453                 3.1980
 Frc consts  --      1.0973                 0.7296                 2.4360
 IR Inten    --     20.8164               234.0910               195.1894

                     31                     32                     33
                      A                      A                      A
 Frequencies --   1148.0651              1160.6746              1181.0257
 Red. masses --      2.3551                 3.9585                 3.4197
 Frc consts  --      1.8289                 3.1420                 2.8103
 IR Inten    --     19.5525                33.5901                43.6653

                     34                     35                     36
                      A                      A                      A
 Frequencies --   1185.9735              1206.2443              1251.0607
 Red. masses --      2.9050                 3.3907                 1.2029
 Frc consts  --      2.4074                 2.9068                 1.1093
 IR Inten    --    283.7977                12.7893                34.2667

                     37                     38                     39
                      A                      A                      A
 Frequencies --   1254.8794              1270.1226              1275.8484
 Red. masses --      1.2866                 1.2283                 1.2544
 Frc consts  --      1.1937                 1.1675                 1.2030
 IR Inten    --      3.2755                 0.2446                 2.5011

                     40                     41                     42
                      A                      A                      A
 Frequencies --   1373.7389              1382.1214              1411.9043
 Red. masses --      1.3217                 1.3539                 1.2138
 Frc consts  --      1.4696                 1.5239                 1.4256
 IR Inten    --      5.1946                12.4718                 6.6911

                     43                     44                     45
                      A                      A                      A
 Frequencies --   1418.5043              1462.0766              1469.9573
 Red. masses --      1.2262                 1.0912                 1.0969
 Frc consts  --      1.4537                 1.3744                 1.3965
 IR Inten    --     12.1757                14.0262                 6.0790

                     46                     47                     48
                      A                      A                      A
 Frequencies --   1496.0875              1499.2946              2799.0102
 Red. masses --      1.0932                 1.0939                 1.0750
 Frc consts  --      1.4416                 1.4487                 4.9623
 IR Inten    --      7.3918                 2.7700               263.0588

                     49                     50                     51
                      A                      A                      A
 Frequencies --   2820.3774              2886.3456              2892.8444
 Red. masses --      1.0754                 1.0693                 1.0708
 Frc consts  --      5.0401                 5.2489                 5.2796
 IR Inten    --    237.1674               515.9866               258.6193

                     52                     53                     54
                      A                      A                      A
 Frequencies --   2909.6971              2918.9712              2997.2815
 Red. masses --      1.0762                 1.0774                 1.0928
 Frc consts  --      5.3684                 5.4086                 5.7845
 IR Inten    --    319.4382               191.7285                37.5190

                     55                     56                     57
                      A                      A                      A
 Frequencies --   3007.4632              3883.1039              3943.3204
 Red. masses --      1.0915                 1.0666                 1.0645
 Frc consts  --      5.8164                 9.4755                 9.7525
 IR Inten    --     38.8247                14.5631                 5.7066

 - Thermochemistry -
 -------------------
 Temperature   298.150 Kelvin.  Pressure   1.00000 Atm.
 Atom     1 has atomic number 14 and mass  27.97693

 Molecular mass:   182.02467 amu.
 Principal axes and moments of inertia in atomic units:
                           1         2         3
     Eigenvalues --  1172.435582033.628402269.94533
           X            0.99999  -0.00429   0.00055
           Y            0.00427   0.99965   0.02615
           Z           -0.00066  -0.02615   0.99966
 This molecule is an asymmetric top.
 Rotational symmetry number  1.
 Warning -- assumption of classical behavior for rotation
           may cause significant error
 Rotational temperatures (Kelvin)      0.07388     0.04259     0.03816
 Rotational constants (GHZ):           1.53931     0.88745     0.79506
    1 imaginary frequencies ignored.
 Zero-point vibrational energy     409481.8 (Joules/Mol)
                                   97.86849 (Kcal/Mol)
 Warning -- explicit consideration of  18 degrees of freedom as
           vibrations may cause significant error
 Vibrational temperatures:    130.35   144.04   200.25   229.27   262.17
          (Kelvin)            307.11   359.53   413.05   413.90   462.32
                              477.51   514.00   574.20   616.46   648.31
                              713.28   839.75   890.48   913.73   925.11
                              989.32  1027.39  1072.56  1312.77  1331.96
                             1335.38  1340.59  1434.73  1635.95  1651.81
                             1669.95  1699.23  1706.35  1735.52  1800.00
                             1805.49  1827.42  1835.66  1976.50  1988.56
                             2031.42  2040.91  2103.60  2114.94  2152.54
                             2157.15  4027.15  4057.89  4152.81  4162.16
                             4186.41  4199.75  4312.42  4327.07  5586.92
                             5673.56

 Zero-point correction=                           0.155963 (Hartree/Particle)
 Thermal correction to Energy=                    0.167644
 Thermal correction to Enthalpy=                  0.168588
 Thermal correction to Gibbs Free Energy=         0.119302
 Sum of electronic and zero-point Energies=           -899.280385
 Sum of electronic and thermal Energies=              -899.268705
 Sum of electronic and thermal Enthalpies=            -899.267760
 Sum of electronic and thermal Free Energies=         -899.317046

                     E (Thermal)             CV                S
                      KCal/Mol        Cal/Mol-Kelvin    Cal/Mol-Kelvin
 Total                  105.198             44.205            103.731
 Electronic               0.000              0.000              0.000
 Translational            0.889              2.981             41.503
 Rotational               0.889              2.981             30.071
 Vibrational            103.421             38.243             32.156
 Vibration     1          0.602              1.956              3.647
 Vibration     2          0.604              1.949              3.452
 Vibration     3          0.615              1.914              2.815
 Vibration     4          0.621              1.892              2.557
 Vibration     5          0.630              1.864              2.306
 Vibration     6          0.644              1.820              2.014
 Vibration     7          0.663              1.763              1.731
 Vibration     8          0.684              1.698              1.491
 Vibration     9          0.685              1.697              1.488
 Vibration    10          0.707              1.633              1.303
 Vibration    11          0.714              1.612              1.251
 Vibration    12          0.732              1.560              1.134
 Vibration    13          0.765              1.472              0.966
 Vibration    14          0.790              1.408              0.864
 Vibration    15          0.809              1.360              0.794
 Vibration    16          0.851              1.259              0.669
 Vibration    17          0.941              1.067              0.479
 Vibration    18          0.979              0.992              0.418

 Optimization completed.
    -- Stationary point found.
 Normal termination of Gaussian 16 at Thu Mar 21 08:19:57 2024.
