 Gaussian 16, Revision C.01,
 Gaussian 16:  ES64L-G16RevC.01  3-Jul-2019

 ------------------------------------------------------------------
 # opt=(calcall,ts,noeigen) freq wb97xd/def2tzvpp geom=connectivity
 ------------------------------------------------------------------

 Modify TS discovered for PmonoL1 to HBiL3 into potential PL3 to HL3 TS
  opt Unfreeze Result of previous job and optimize to a TS
 ----------------------------------------------------------------------
 Symbolic Z-matrix:
 Charge = -2 Multiplicity = 1

 SCF Done:  E(RwB97XD) =  -899.441347585     A.U. after   17 cycles
 SCF Done:  E(RwB97XD) =  -899.446397834     A.U. after   15 cycles
 SCF Done:  E(RwB97XD) =  -899.449875402     A.U. after   14 cycles
 SCF Done:  E(RwB97XD) =  -899.450113308     A.U. after   13 cycles
 SCF Done:  E(RwB97XD) =  -899.450147809     A.U. after   12 cycles
 SCF Done:  E(RwB97XD) =  -899.450148026     A.U. after    8 cycles
 Optimization completed.
    -- Stationary point found.
 ******    1 imaginary frequencies (negative Signs) ******
    1 imaginary frequencies ignored.
 Normal termination of Gaussian 16 at Wed Mar 20 13:43:57 2024.

 ----------------------------------------------------------------------
 #N Geom=AllCheck Guess=TCheck SCRF=Check GenChk RwB97XD/def2TZVPP Freq
 ----------------------------------------------------------------------

 ----------------------------------------------------------------------
 Modify TS discovered for PmonoL1 to HBiL3 into potential PL3 to HL3 TS
  opt Unfreeze Result of previous job and optimize to a TS
 ----------------------------------------------------------------------
 Charge = -2 Multiplicity = 1

                         Standard orientation:
 ---------------------------------------------------------------------
 Center     Atomic      Atomic             Coordinates (Angstroms)
 Number     Number       Type             X           Y           Z
 ---------------------------------------------------------------------
      1         14           0        0.161150    0.449661   -0.068613
      2          8           0       -0.608469    1.397335   -1.318762
      3          8           0        1.020923   -0.596878    1.193373
      4          8           0        1.677287    0.504460   -0.924965
      5          8           0       -0.526188   -1.061775   -0.661915
      6          8           0       -2.077096    0.483670    0.854001
      7          8           0        0.198268    1.741577    1.075410
      8          6           0       -2.591740   -0.703523    0.475201
      9          1           0       -3.698108   -0.682432    0.262894
     10          1           0       -2.459126   -1.509781    1.243728
     11          6           0       -1.887769   -1.182549   -0.807747
     12          1           0       -2.258695   -0.573110   -1.655401
     13          1           0       -2.149060   -2.238818   -1.018037
     14          6           0        2.698920   -0.237938   -0.369510
     15          1           0        3.289064   -0.747919   -1.154980
     16          1           0        3.399083    0.411938    0.193657
     17          6           0        2.063196   -1.247752    0.600114
     18          1           0        1.738287   -2.142068    0.026238
     19          1           0        2.813181   -1.591714    1.342142
     20          1           0       -0.659150    1.648914    1.497328
     21          1           0       -1.445028    1.613186   -0.902462
 ---------------------------------------------------------------------

 SCF Done:  E(RwB97XD) =  -899.450148026     A.U. after    1 cycles

 The electronic state is 1-A.
 Alpha  occ. eigenvalues --  -65.97560 -18.90599 -18.88895 -18.87888 -18.86959
 Alpha  occ. eigenvalues --  -18.86712 -18.84904 -10.03508 -10.02531 -10.01376
 Alpha  occ. eigenvalues --  -10.00835  -5.08213  -3.42978  -3.42663  -3.42625
 Alpha  occ. eigenvalues --   -0.81034  -0.77571  -0.74468  -0.73551  -0.71497
 Alpha  occ. eigenvalues --   -0.70641  -0.51048  -0.48452  -0.38979  -0.36620
 Alpha  occ. eigenvalues --   -0.29774  -0.27969  -0.25922  -0.25211  -0.23719
 Alpha  occ. eigenvalues --   -0.22094  -0.21194  -0.19384  -0.17646  -0.17360
 Alpha  occ. eigenvalues --   -0.16292  -0.16026  -0.10939  -0.08862  -0.07453
 Alpha  occ. eigenvalues --   -0.07330  -0.06567  -0.04835  -0.03837  -0.02287
 Alpha  occ. eigenvalues --   -0.01655   0.00221   0.01316   0.02170
 Alpha virt. eigenvalues --    0.37124   0.38260   0.40851   0.41209   0.42168
 Alpha virt. eigenvalues --    0.42780   0.42826   0.46128   0.46809   0.47306
 Alpha virt. eigenvalues --    0.49458   0.49743   0.51544   0.53249   0.53519

 Mulliken charges:
               1
     1  Si   0.876202
     2  O   -0.573229
     3  O   -0.507107
     4  O   -0.467516
     5  O   -0.439329
     6  O   -0.739986
     7  O   -0.534751
     8  C    0.180952
     9  H   -0.114201
    10  H   -0.075036
    11  C    0.121991
    12  H   -0.046241
    13  H   -0.056117
    14  C    0.132860
    15  H   -0.050870
    16  H   -0.034252
    17  C    0.110542
    18  H   -0.038487
    19  H   -0.052725
    20  H    0.171108
    21  H    0.136193
 Sum of Mulliken charges =  -2.00000

 Dipole moment (field-independent basis, Debye):
    X=              1.5656    Y=             -2.6119    Z=             -0.6057  Tot=              3.1048
 Quadrupole moment (field-independent basis, Debye-Ang):
   XX=           -107.7105   YY=            -96.5343   ZZ=            -96.1183
   XY=             -2.3329   XZ=              2.2800   YZ=              1.6408

  Exact polarizability:     128.386       3.002     104.889       2.325       0.208      95.128
 Approx polarizability:     118.242       0.633     110.618       1.136       1.562     103.784

 ******    1 imaginary frequencies (negative Signs) ******

                      1                      2                      3
                      A                      A                      A
 Frequencies --   -172.5414                89.8364               102.6410
 Red. masses --      8.6093                 3.1949                 3.4862
 Frc consts  --      0.1510                 0.0152                 0.0216
 IR Inten    --     68.8848                 3.0837                15.2595

                      4                      5                      6
                      A                      A                      A
 Frequencies --    136.9648               194.6030               219.8195
 Red. masses --      3.5413                 3.8040                 4.0484
 Frc consts  --      0.0391                 0.0849                 0.1153
 IR Inten    --     18.6507                 1.3367                21.5418

                      7                      8                      9
                      A                      A                      A
 Frequencies --    267.0635               296.0057               305.1721
 Red. masses --      3.0238                 2.7491                 1.9783
 Frc consts  --      0.1271                 0.1419                 0.1085
 IR Inten    --      0.4772                 3.1445                 9.0042

                     10                     11                     12
                      A                      A                      A
 Frequencies --    339.8349               360.1825               381.2258
 Red. masses --      2.8384                 3.8949                 5.4478
 Frc consts  --      0.1931                 0.2977                 0.4665
 IR Inten    --      5.7291                43.7542                15.6313

                     13                     14                     15
                      A                      A                      A
 Frequencies --    400.3367               419.0101               437.3791
 Red. masses --      3.9164                 6.3258                 3.9933
 Frc consts  --      0.3698                 0.6544                 0.4501
 IR Inten    --     21.6732                 0.5334                31.2801

                     16                     17                     18
                      A                      A                      A
 Frequencies --    508.0914               539.7312               577.9524
 Red. masses --      2.2206                 4.7522                 4.3425
 Frc consts  --      0.3378                 0.8156                 0.8546
 IR Inten    --     48.1743                13.1003               103.7876

                     19                     20                     21
                      A                      A                      A
 Frequencies --    596.5113               612.2674               665.8793
 Red. masses --      2.2831                 3.5781                 3.8936
 Frc consts  --      0.4786                 0.7903                 1.0172
 IR Inten    --     32.3545                47.6698               178.4234

                     22                     23                     24
                      A                      A                      A
 Frequencies --    695.0401               750.4053               883.7845
 Red. masses --     11.7754                12.0303                 2.4105
 Frc consts  --      3.3516                 3.9913                 1.1093
 IR Inten    --    379.4952               288.4196                27.2083

                     25                     26                     27
                      A                      A                      A
 Frequencies --    911.6615               919.9583               929.9033
 Red. masses --      2.3856                 1.7685                 1.7923
 Frc consts  --      1.1682                 0.8818                 0.9132
 IR Inten    --      7.3243                26.6236                60.4664

                     28                     29                     30
                      A                      A                      A
 Frequencies --   1007.1715              1078.8387              1139.5412
 Red. masses --      1.1176                 1.2423                 2.1556
 Frc consts  --      0.6680                 0.8519                 1.6492
 IR Inten    --    169.3829               366.6604                47.7254

                     31                     32                     33
                      A                      A                      A
 Frequencies --   1147.5664              1176.5667              1184.9140
 Red. masses --      2.3189                 4.1370                 3.3460
 Frc consts  --      1.7992                 3.3742                 2.7679
 IR Inten    --     96.6864                11.5362               162.4288

                     34                     35                     36
                      A                      A                      A
 Frequencies --   1192.4253              1212.5090              1243.3287
 Red. masses --      2.9836                 2.9673                 1.2572
 Frc consts  --      2.4995                 2.5703                 1.1450
 IR Inten    --    137.5922               163.7978                12.4143

                     37                     38                     39
                      A                      A                      A
 Frequencies --   1249.2271              1251.4571              1268.0802
 Red. masses --      1.2750                 1.2419                 1.2597
 Frc consts  --      1.1723                 1.1460                 1.1935
 IR Inten    --      6.8757                14.1475                15.6973

                     40                     41                     42
                      A                      A                      A
 Frequencies --   1373.8106              1377.4469              1381.6032
 Red. masses --      1.3490                 1.3339                 1.3247
 Frc consts  --      1.5001                 1.4912                 1.4898
 IR Inten    --     18.9399                17.2783                20.8230

                     43                     44                     45
                      A                      A                      A
 Frequencies --   1382.6813              1476.9752              1484.1417
 Red. masses --      1.3501                 1.1014                 1.0906
 Frc consts  --      1.5208                 1.4156                 1.4154
 IR Inten    --     32.6386                27.2110                 8.3599

                     46                     47                     48
                      A                      A                      A
 Frequencies --   1487.6843              1498.3136              2640.1339
 Red. masses --      1.0939                 1.0936                 1.0847
 Frc consts  --      1.4264                 1.4465                 4.4548
 IR Inten    --      2.6202                 9.1312               520.9526

                     49                     50                     51
                      A                      A                      A
 Frequencies --   2707.2275              2826.9214              2836.1663
 Red. masses --      1.0592                 1.0943                 1.0510
 Frc consts  --      4.5740                 5.1522                 4.9811
 IR Inten    --    376.6089                19.4536               194.7766

                     52                     53                     54
                      A                      A                      A
 Frequencies --   2863.2126              2868.4862              2880.2809
 Red. masses --      1.0622                 1.0775                 1.0995
 Frc consts  --      5.1308                 5.2237                 5.3744
 IR Inten    --    768.8885               105.2005               202.7704

                     55                     56                     57
                      A                      A                      A
 Frequencies --   2884.8725              3867.9537              3880.6057
 Red. masses --      1.0800                 1.0642                 1.0645
 Frc consts  --      5.2957                 9.3804                 9.4447
 IR Inten    --    387.8787                52.7519                54.4753

 - Thermochemistry -
 -------------------
 Temperature   298.150 Kelvin.  Pressure   1.00000 Atm.
 Atom     1 has atomic number 14 and mass  27.97693

 Molecular mass:   182.02467 amu.
 Principal axes and moments of inertia in atomic units:
                           1         2         3
     Eigenvalues --  1107.182112141.912932322.36373
           X            0.99996  -0.00119   0.00841
           Y            0.00103   0.99983   0.01840
           Z           -0.00843  -0.01839   0.99980
 This molecule is an asymmetric top.
 Rotational symmetry number  1.
 Warning -- assumption of classical behavior for rotation
           may cause significant error
 Rotational temperatures (Kelvin)      0.07823     0.04044     0.03730
 Rotational constants (GHZ):           1.63003     0.84258     0.77711
    1 imaginary frequencies ignored.
 Zero-point vibrational energy     409191.1 (Joules/Mol)
                                   97.79901 (Kcal/Mol)
 Warning -- explicit consideration of  19 degrees of freedom as
           vibrations may cause significant error
 Vibrational temperatures:    129.25   147.68   197.06   279.99   316.27
          (Kelvin)            384.24   425.89   439.07   488.95   518.22
                              548.50   576.00   602.86   629.29   731.03
                              776.55   831.54   858.25   880.92   958.05
                             1000.01  1079.67  1271.57  1311.68  1323.61
                             1337.92  1449.10  1552.21  1639.55  1651.09
                             1692.82  1704.83  1715.63  1744.53  1788.87
                             1797.36  1800.57  1824.48  1976.61  1981.84
                             1987.82  1989.37  2125.04  2135.35  2140.45
                             2155.74  3798.56  3895.10  4067.31  4080.61
                             4119.52  4127.11  4144.08  4150.69  5565.12
                             5583.33

 Zero-point correction=                           0.155853 (Hartree/Particle)
 Thermal correction to Energy=                    0.166890
 Thermal correction to Enthalpy=                  0.167834
 Thermal correction to Gibbs Free Energy=         0.119905
 Sum of electronic and zero-point Energies=           -899.294295
 Sum of electronic and thermal Energies=              -899.283258
 Sum of electronic and thermal Enthalpies=            -899.282314
 Sum of electronic and thermal Free Energies=         -899.330243

                     E (Thermal)             CV                S
                      KCal/Mol        Cal/Mol-Kelvin    Cal/Mol-Kelvin
 Total                  104.725             42.859            100.875
 Electronic               0.000              0.000              0.000
 Translational            0.889              2.981             41.503
 Rotational               0.889              2.981             30.089
 Vibrational            102.948             36.897             29.282
 Vibration     1          0.602              1.956              3.664
 Vibration     2          0.605              1.947              3.404
 Vibration     3          0.614              1.916              2.846
 Vibration     4          0.635              1.847              2.184
 Vibration     5          0.647              1.811              1.961
 Vibration     6          0.672              1.734              1.615
 Vibration     7          0.690              1.681              1.439
 Vibration     8          0.696              1.664              1.388
 Vibration     9          0.720              1.596              1.213
 Vibration    10          0.735              1.554              1.121
 Vibration    11          0.751              1.510              1.034
 Vibration    12          0.766              1.469              0.961
 Vibration    13          0.782              1.429              0.895
 Vibration    14          0.798              1.389              0.835
 Vibration    15          0.863              1.232              0.638
 Vibration    16          0.895              1.162              0.566
 Vibration    17          0.934              1.079              0.489
 Vibration    18          0.954              1.039              0.456
 Vibration    19          0.971              1.006              0.429

 Optimization completed.
    -- Stationary point found.
 Normal termination of Gaussian 16 at Wed Mar 20 15:21:07 2024.
