 Gaussian 16, Revision C.01,
 Gaussian 16:  ES64L-G16RevC.01  3-Jul-2019

 ------------------------------------------------------------------
 # opt=(calcall,ts,noeigen) freq wb97xd/def2tzvpp geom=connectivity
 ------------------------------------------------------------------

 Modify TS discovered for PmonoL1 to HBiL3 into potential PL3 to HL3 TS
  opt Unfreeze Result of previous job and optimize to a TS
 ----------------------------------------------------------------------
 Symbolic Z-matrix:
 Charge = -2 Multiplicity = 1

 SCF Done:  E(RwB97XD) =  -976.849660987     A.U. after   16 cycles
 SCF Done:  E(RwB97XD) =  -976.849498621     A.U. after   15 cycles
 SCF Done:  E(RwB97XD) =  -976.849036343     A.U. after   14 cycles
 SCF Done:  E(RwB97XD) =  -976.849196152     A.U. after   14 cycles
 SCF Done:  E(RwB97XD) =  -976.849197257     A.U. after    9 cycles
 Optimization completed.
    -- Stationary point found.
 ******    1 imaginary frequencies (negative Signs) ******
    1 imaginary frequencies ignored.
 Normal termination of Gaussian 16 at Fri Feb  2 04:21:25 2024.

 ----------------------------------------------------------------------
 #N Geom=AllCheck Guess=TCheck SCRF=Check GenChk RwB97XD/def2TZVPP Freq
 ----------------------------------------------------------------------

 ----------------------------------------------------------------------
 Modify TS discovered for PmonoL1 to HBiL3 into potential PL3 to HL3 TS
  opt Unfreeze Result of previous job and optimize to a TS
 ----------------------------------------------------------------------
 Charge = -2 Multiplicity = 1

                         Standard orientation:
 ---------------------------------------------------------------------
 Center     Atomic      Atomic             Coordinates (Angstroms)
 Number     Number       Type             X           Y           Z
 ---------------------------------------------------------------------
      1         14           0       -0.285477   -0.127377   -0.050621
      2          8           0        0.733876   -1.000989   -1.198003
      3          8           0       -1.315540    0.651536    1.177636
      4          8           0       -1.742770   -0.576272   -0.913877
      5          8           0        0.089980    1.367615   -0.778652
      6          8           0        2.059849    0.728690    1.033336
      7          8           0        0.046376   -1.357378    1.111431
      8          6           0        2.159913    1.869191    0.357540
      9          1           0        3.219489    2.181857    0.074117
     10          1           0        1.754992    2.774740    0.906158
     11          6           0        1.393938    1.804692   -0.976630
     12          1           0        1.931097    1.119306   -1.651920
     13          1           0        1.360271    2.804243   -1.451396
     14          6           0        1.180252   -2.098938    0.813243
     15          1           0        2.072061   -1.582378    1.188607
     16          1           0        1.108288   -3.102480    1.266944
     17          6           0        1.241992   -2.183318   -0.716370
     18          1           0        2.279952   -2.341423   -1.059478
     19          1           0        0.645012   -3.051709   -1.070500
     20          6           0       -2.905970   -0.099999   -0.341819
     21          1           0       -3.613771    0.253436   -1.113983
     22          1           0       -3.420251   -0.896127    0.232646
     23          6           0       -2.506565    1.033570    0.614813
     24          1           0       -2.412943    1.977198    0.041750
     25          1           0       -3.283036    1.189802    1.386126
 ---------------------------------------------------------------------

 SCF Done:  E(RwB97XD) =  -976.849197257     A.U. after    1 cycles

 The electronic state is 1-A.
 Alpha  occ. eigenvalues --  -65.99242 -18.92159 -18.91315 -18.90634 -18.90471
 Alpha  occ. eigenvalues --  -18.90434 -18.82084 -10.05071 -10.04346 -10.03869
 Alpha  occ. eigenvalues --  -10.02747 -10.01075  -9.99616  -5.10042  -3.44762
 Alpha  occ. eigenvalues --   -3.44494  -3.44486  -0.83581  -0.81160  -0.78098
 Alpha  occ. eigenvalues --   -0.76873  -0.75451  -0.69842  -0.53595  -0.51347
 Alpha  occ. eigenvalues --   -0.48182  -0.41277  -0.39475  -0.35930  -0.31952
 Alpha  occ. eigenvalues --   -0.29684  -0.28267  -0.27872  -0.27043  -0.25437
 Alpha  occ. eigenvalues --   -0.23358  -0.22114  -0.21627  -0.20751  -0.19592
 Alpha  occ. eigenvalues --   -0.18934  -0.17595  -0.15165  -0.11801  -0.09910
 Alpha  occ. eigenvalues --   -0.09219  -0.08508  -0.07797  -0.07192  -0.06060
 Alpha  occ. eigenvalues --   -0.05456  -0.04858  -0.02867  -0.01910   0.03702
 Alpha  occ. eigenvalues --    0.04531
 Alpha virt. eigenvalues --    0.35942   0.37098   0.38387   0.40015   0.40100
 Alpha virt. eigenvalues --    0.40792   0.41526   0.42523   0.43210   0.43628
 Alpha virt. eigenvalues --    0.45584   0.46135   0.47356   0.48613   0.49099

 Mulliken charges:
               1
     1  Si   0.811110
     2  O   -0.500119
     3  O   -0.491584
     4  O   -0.450733
     5  O   -0.434050
     6  O   -0.717422
     7  O   -0.421922
     8  C    0.217233
     9  H   -0.160157
    10  H   -0.124168
    11  C    0.129992
    12  H   -0.017557
    13  H   -0.056788
    14  C    0.076004
    15  H    0.029087
    16  H   -0.035220
    17  C    0.121965
    18  H   -0.034919
    19  H   -0.040745
    20  C    0.120471
    21  H   -0.040164
    22  H   -0.029276
    23  C    0.100365
    24  H   -0.020846
    25  H   -0.030557
 Sum of Mulliken charges =  -2.00000

 Dipole moment (field-independent basis, Debye):
    X=             -3.6602    Y=             -2.3051    Z=             -1.9958  Tot=              4.7638
 Quadrupole moment (field-independent basis, Debye-Ang):
   XX=           -122.8796   YY=           -112.1517   ZZ=           -110.0287
   XY=             -8.1033   XZ=             -5.1460   YZ=             -3.2198

  Exact polarizability:     144.477       0.990     143.587      -3.463      -2.481     111.305
 Approx polarizability:     137.775      -1.827     140.281      -2.828      -4.897     124.686

 ******    1 imaginary frequencies (negative Signs) ******

                      1                      2                      3
                      A                      A                      A
 Frequencies --   -129.8516                79.2613                83.9809
 Red. masses --      9.7322                 3.0404                 3.4668
 Frc consts  --      0.0967                 0.0113                 0.0144
 IR Inten    --     61.3354                 4.2683                 5.0808

                      4                      5                      6
                      A                      A                      A
 Frequencies --    117.6037               131.1160               168.8466
 Red. masses --      3.1998                 3.5365                 4.5036
 Frc consts  --      0.0261                 0.0358                 0.0756
 IR Inten    --      1.1289                 4.0572                 9.2047

                      7                      8                      9
                      A                      A                      A
 Frequencies --    184.4597               251.5421               276.7272
 Red. masses --      3.5099                 2.4808                 3.0948
 Frc consts  --      0.0704                 0.0925                 0.1396
 IR Inten    --     11.6924                 3.6041                 1.3700

                     10                     11                     12
                      A                      A                      A
 Frequencies --    290.0385               322.6243               360.4973
 Red. masses --      2.7610                 5.1541                 5.8501
 Frc consts  --      0.1368                 0.3161                 0.4479
 IR Inten    --      1.0659                22.9986                 8.0232

                     13                     14                     15
                      A                      A                      A
 Frequencies --    374.2888               396.2534               422.1638
 Red. masses --      6.9813                 6.2320                 7.5451
 Frc consts  --      0.5762                 0.5765                 0.7923
 IR Inten    --      9.9951                 8.5909                12.1104

                     16                     17                     18
                      A                      A                      A
 Frequencies --    478.3623               559.1753               590.6481
 Red. masses --      8.7337                 3.3252                 4.5669
 Frc consts  --      1.1775                 0.6126                 0.9387
 IR Inten    --     12.4910                25.5681                71.3366

                     19                     20                     21
                      A                      A                      A
 Frequencies --    593.0105               636.6036               642.6242
 Red. masses --      4.4128                 5.9350                 3.3173
 Frc consts  --      0.9143                 1.4171                 0.8071
 IR Inten    --     40.5438                31.5381                14.6890

                     22                     23                     24
                      A                      A                      A
 Frequencies --    676.1190               689.4300               774.9586
 Red. masses --      3.7936                 5.2941                 9.5145
 Frc consts  --      1.0218                 1.4826                 3.3666
 IR Inten    --    189.4811               367.8549               275.8024

                     25                     26                     27
                      A                      A                      A
 Frequencies --    872.6607               914.4225               917.8043
 Red. masses --      2.4235                 1.7823                 2.2801
 Frc consts  --      1.0874                 0.8781                 1.1316
 IR Inten    --     55.4853                 7.8756                13.7027

                     28                     29                     30
                      A                      A                      A
 Frequencies --    924.5524               931.1134               933.5204
 Red. masses --      1.7967                 1.8718                 2.4030
 Frc consts  --      0.9049                 0.9561                 1.2338
 IR Inten    --     45.3444                52.1781                15.0160

                     31                     32                     33
                      A                      A                      A
 Frequencies --   1134.3300              1143.5610              1149.0070
 Red. masses --      2.2057                 3.0051                 2.4871
 Frc consts  --      1.6722                 2.3154                 1.9346
 IR Inten    --     67.0816               269.3913                37.5898

                     34                     35                     36
                      A                      A                      A
 Frequencies --   1167.3650              1178.1758              1180.9992
 Red. masses --      3.9137                 3.7138                 3.4180
 Frc consts  --      3.1423                 3.0373                 2.8088
 IR Inten    --     22.8677               170.5933                20.0059

                     37                     38                     39
                      A                      A                      A
 Frequencies --   1185.8182              1204.2139              1220.6094
 Red. masses --      3.4776                 3.2564                 2.7805
 Frc consts  --      2.8812                 2.7822                 2.4408
 IR Inten    --    182.2462                89.6033               234.6177

                     40                     41                     42
                      A                      A                      A
 Frequencies --   1235.4116              1250.5377              1252.4579
 Red. masses --      1.1899                 1.1981                 1.2371
 Frc consts  --      1.0700                 1.1039                 1.1434
 IR Inten    --      1.2973                18.1175                11.8707

                     43                     44                     45
                      A                      A                      A
 Frequencies --   1255.5002              1270.2893              1279.7219
 Red. masses --      1.2643                 1.2222                 1.3049
 Frc consts  --      1.1742                 1.1620                 1.2590
 IR Inten    --      4.3171                 2.7848                25.8138

                     46                     47                     48
                      A                      A                      A
 Frequencies --   1372.7593              1375.5055              1379.1395
 Red. masses --      1.3222                 1.3067                 1.3453
 Frc consts  --      1.4680                 1.4567                 1.5076
 IR Inten    --     11.2166                 4.8778                 5.0961

                     49                     50                     51
                      A                      A                      A
 Frequencies --   1384.3130              1389.5701              1401.4152
 Red. masses --      1.3144                 1.3948                 1.2657
 Frc consts  --      1.4841                 1.5868                 1.4645
 IR Inten    --     15.6115                93.5904                 8.2923

                     52                     53                     54
                      A                      A                      A
 Frequencies --   1462.2128              1473.0882              1485.9793
 Red. masses --      1.1135                 1.0881                 1.0955
 Frc consts  --      1.4027                 1.3912                 1.4253
 IR Inten    --     84.8722                 4.9704                 0.5325

                     55                     56                     57
                      A                      A                      A
 Frequencies --   1496.6856              1502.1490              1504.0555
 Red. masses --      1.0913                 1.0948                 1.0952
 Frc consts  --      1.4402                 1.4555                 1.4597
 IR Inten    --      1.6018                 7.5015                 6.2555

                     58                     59                     60
                      A                      A                      A
 Frequencies --   2483.8514              2584.9730              2816.7214
 Red. masses --      1.0858                 1.0515                 1.0760
 Frc consts  --      3.9467                 4.1398                 5.0297
 IR Inten    --    691.7947               640.7025               243.7545

                     61                     62                     63
                      A                      A                      A
 Frequencies --   2854.1934              2868.8934              2880.5299
 Red. masses --      1.0818                 1.0585                 1.0684
 Frc consts  --      5.1923                 5.1331                 5.2230
 IR Inten    --     93.1865               118.5233               398.5475

                     64                     65                     66
                      A                      A                      A
 Frequencies --   2903.1555              2904.9694              2907.0902
 Red. masses --      1.0734                 1.0990                 1.0775
 Frc consts  --      5.3303                 5.4643                 5.3654
 IR Inten    --    601.0336               282.7175               125.6437

                     67                     68                     69
                      A                      A                      A
 Frequencies --   2921.0054              2954.2161              3034.0690
 Red. masses --      1.0704                 1.0883                 1.0889
 Frc consts  --      5.3811                 5.5958                 5.9057
 IR Inten    --    297.1814               122.2057                54.0334

 - Thermochemistry -
 -------------------
 Temperature   298.150 Kelvin.  Pressure   1.00000 Atm.
 Atom     1 has atomic number 14 and mass  27.97693

 Molecular mass:   208.04032 amu.
 Principal axes and moments of inertia in atomic units:
                           1         2         3
     Eigenvalues --  1813.712992395.889893121.69532
           X            0.99981  -0.01647  -0.01076
           Y            0.01636   0.99982  -0.00996
           Z            0.01092   0.00979   0.99989
 This molecule is an asymmetric top.
 Rotational symmetry number  1.
 Warning -- assumption of classical behavior for rotation
           may cause significant error
 Rotational temperatures (Kelvin)      0.04776     0.03615     0.02775
 Rotational constants (GHZ):           0.99505     0.75327     0.57813
    1 imaginary frequencies ignored.
 Zero-point vibrational energy     502688.5 (Joules/Mol)
                                  120.14543 (Kcal/Mol)
 Warning -- explicit consideration of  18 degrees of freedom as
           vibrations may cause significant error
 Vibrational temperatures:    114.04   120.83   169.21   188.65   242.93
          (Kelvin)            265.40   361.91   398.15   417.30   464.18
                              518.68   538.52   570.12   607.40   688.26
                              804.53   849.81   853.21   915.93   924.59
                              972.78   991.94  1114.99  1255.56  1315.65
                             1320.52  1330.22  1339.66  1343.13  1632.05
                             1645.33  1653.16  1679.58  1695.13  1699.19
                             1706.13  1732.60  1756.18  1777.48  1799.24
                             1802.01  1806.38  1827.66  1841.23  1975.09
                             1979.05  1984.27  1991.72  1999.28  2016.32
                             2103.80  2119.45  2137.99  2153.40  2161.26
                             2164.00  3573.71  3719.20  4052.63  4106.55
                             4127.70  4144.44  4176.99  4179.60  4182.65
                             4202.68  4250.46  4365.35

 Zero-point correction=                           0.191464 (Hartree/Particle)
 Thermal correction to Energy=                    0.203450
 Thermal correction to Enthalpy=                  0.204394
 Thermal correction to Gibbs Free Energy=         0.153605
 Sum of electronic and zero-point Energies=           -976.657733
 Sum of electronic and thermal Energies=              -976.645747
 Sum of electronic and thermal Enthalpies=            -976.644803
 Sum of electronic and thermal Free Energies=         -976.695592

                     E (Thermal)             CV                S
                      KCal/Mol        Cal/Mol-Kelvin    Cal/Mol-Kelvin
 Total                  127.667             46.152            106.895
 Electronic               0.000              0.000              0.000
 Translational            0.889              2.981             41.902
 Rotational               0.889              2.981             30.984
 Vibrational            125.889             40.190             34.009
 Vibration     1          0.600              1.963              3.909
 Vibration     2          0.601              1.960              3.796
 Vibration     3          0.608              1.935              3.139
 Vibration     4          0.612              1.922              2.930
 Vibration     5          0.625              1.881              2.448
 Vibration     6          0.631              1.861              2.283
 Vibration     7          0.664              1.760              1.720
 Vibration     8          0.678              1.716              1.554
 Vibration     9          0.686              1.692              1.474
 Vibration    10          0.708              1.630              1.297
 Vibration    11          0.735              1.554              1.120
 Vibration    12          0.745              1.525              1.062
 Vibration    13          0.763              1.478              0.977
 Vibration    14          0.784              1.422              0.885
 Vibration    15          0.835              1.298              0.714
 Vibration    16          0.915              1.120              0.525
 Vibration    17          0.948              1.052              0.466
 Vibration    18          0.951              1.047              0.462

 Optimization completed.
    -- Stationary point found.
 Normal termination of Gaussian 16 at Fri Feb  2 07:05:02 2024.
