 Gaussian 16, Revision C.01,
 Gaussian 16:  ES64L-G16RevC.01  3-Jul-2019

 ----------------------------------------------------------------------
 # opt=(calcall,ts,noeigen) freq wb97xd/def2tzvpp geom=connectivity iop
 (7/8=1)
 ----------------------------------------------------------------------

 TS opt of scan peak max corresponding to proton transfer from ethylene
  glycol to ligand
 ----------------------------------------------------------------------
 Symbolic Z-matrix:
 Charge = -1 Multiplicity = 1

 SCF Done:  E(RwB97XD) =  -746.327496035     A.U. after   14 cycles
 ******    1 imaginary frequencies (negative Signs) ******
    1 imaginary frequencies ignored.
 SCF Done:  E(RwB97XD) =  -746.325313211     A.U. after   13 cycles
 SCF Done:  E(RwB97XD) =  -746.332378623     A.U. after   14 cycles
 SCF Done:  E(RwB97XD) =  -746.334714674     A.U. after   14 cycles
 SCF Done:  E(RwB97XD) =  -746.328165173     A.U. after   14 cycles
 SCF Done:  E(RwB97XD) =  -746.334406664     A.U. after   13 cycles
 SCF Done:  E(RwB97XD) =  -746.333611752     A.U. after   14 cycles
 SCF Done:  E(RwB97XD) =  -746.334766820     A.U. after   13 cycles
 SCF Done:  E(RwB97XD) =  -746.327130736     A.U. after   14 cycles
 SCF Done:  E(RwB97XD) =  -746.331491123     A.U. after   15 cycles
 SCF Done:  E(RwB97XD) =  -746.335193726     A.U. after   13 cycles
 SCF Done:  E(RwB97XD) =  -746.332230018     A.U. after   14 cycles
 SCF Done:  E(RwB97XD) =  -746.335210472     A.U. after   14 cycles
 SCF Done:  E(RwB97XD) =  -746.331846284     A.U. after   13 cycles
 SCF Done:  E(RwB97XD) =  -746.334659467     A.U. after   14 cycles
 SCF Done:  E(RwB97XD) =  -746.333966373     A.U. after   14 cycles
 SCF Done:  E(RwB97XD) =  -746.334797421     A.U. after   12 cycles
 SCF Done:  E(RwB97XD) =  -746.334787747     A.U. after   12 cycles
 SCF Done:  E(RwB97XD) =  -746.334789576     A.U. after    9 cycles
 Optimization completed.
    -- Stationary point found.
 Normal termination of Gaussian 16 at Thu Feb 15 09:10:50 2024.

 ----------------------------------------------------------------------
 #N Geom=AllCheck Guess=TCheck SCRF=Check Test GenChk RwB97XD/def2TZVPP
  Freq
 ----------------------------------------------------------------------

 ----------------------------------------------------------------------
 TS opt of scan peak max corresponding to proton transfer from ethylene
  glycol to ligand
 ----------------------------------------------------------------------
 Charge = -1 Multiplicity = 1

                         Standard orientation:
 ---------------------------------------------------------------------
 Center     Atomic      Atomic             Coordinates (Angstroms)
 Number     Number       Type             X           Y           Z
 ---------------------------------------------------------------------
      1         14           0        0.797932    0.024705   -0.013723
      2          8           0        1.061520    0.016643    1.622705
      3          1           0        1.982678   -0.157455    1.801474
      4          8           0        0.622631    1.467179   -0.739984
      5          1           0       -0.336976    1.639724   -0.419095
      6          8           0        2.263057   -0.542517   -0.601766
      7          1           0        2.516279   -0.045521   -1.375718
      8          8           0       -0.257477   -1.165535   -0.425950
      9          6           0       -1.605892   -1.192796   -0.009870
     10          1           0       -1.651216   -1.458740    1.054400
     11          1           0       -2.116474   -1.973552   -0.587826
     12          6           0       -2.259852    0.176235   -0.203063
     13          1           0       -2.368206    0.329546   -1.303004
     14          1           0       -3.301406    0.090916    0.185172
     15          8           0       -1.527388    1.140300    0.409283
 ---------------------------------------------------------------------

 SCF Done:  E(RwB97XD) =  -746.334789576     A.U. after    1 cycles

 The electronic state is 1-A.
 Alpha  occ. eigenvalues --  -66.13342 -19.08394 -19.08196 -19.07666 -19.04327
 Alpha  occ. eigenvalues --  -18.98101 -10.16334 -10.13975  -5.24923  -3.59558
 Alpha  occ. eigenvalues --   -3.59400  -3.59294  -0.96810  -0.93949  -0.92897
 Alpha  occ. eigenvalues --   -0.89926  -0.85029  -0.64195  -0.52256  -0.47359
 Alpha  occ. eigenvalues --   -0.44098  -0.40908  -0.39865  -0.38475  -0.37107
 Alpha  occ. eigenvalues --   -0.31841  -0.31058  -0.29572  -0.28491  -0.26824
 Alpha  occ. eigenvalues --   -0.26363  -0.24712  -0.23700  -0.22501  -0.20078
 Alpha  occ. eigenvalues --   -0.12312  -0.12073
 Alpha virt. eigenvalues --    0.24467   0.27193   0.27800   0.30145   0.31973
 Alpha virt. eigenvalues --    0.33199   0.34887   0.35313   0.37716   0.38399
 Alpha virt. eigenvalues --    0.39573   0.41887   0.43197   0.43903   0.44552

 Mulliken charges:
               1
     1  Si   0.806214
     2  O   -0.402146
     3  H    0.147788
     4  O   -0.547207
     5  H    0.253014
     6  O   -0.504886
     7  H    0.165505
     8  O   -0.401859
     9  C    0.107443
    10  H    0.028001
    11  H    0.012973
    12  C    0.085901
    13  H   -0.026405
    14  H   -0.031944
    15  O   -0.692392
 Sum of Mulliken charges =  -1.00000

 Dipole moment (field-independent basis, Debye):
    X=              2.1897    Y=             -2.4261    Z=             -0.7839  Tot=              3.3609
 Quadrupole moment (field-independent basis, Debye-Ang):
   XX=            -65.1960   YY=            -67.6149   ZZ=            -59.6914
   XY=              5.3482   XZ=              2.4256   YZ=             -2.1901

  Exact polarizability:      82.974       3.597      65.100       0.534      -1.139      64.078
 Approx polarizability:      77.783       2.759      69.306      -0.494      -0.280      69.853

 ******    1 imaginary frequencies (negative Signs) ******

                      1                      2                      3
                      A                      A                      A
 Frequencies --   -175.8843               104.3917               161.0337
 Red. masses --      6.4724                 3.0537                 6.2147
 Frc consts  --      0.1180                 0.0196                 0.0950
 IR Inten    --     30.1972                10.8701                 4.2601

                      4                      5                      6
                      A                      A                      A
 Frequencies --    182.5106               195.7712               247.0128
 Red. masses --      1.5342                 1.9606                 2.5858
 Frc consts  --      0.0301                 0.0443                 0.0930
 IR Inten    --     55.9862                20.0667                48.8598

                      7                      8                      9
                      A                      A                      A
 Frequencies --    263.4654               326.4335               354.0623
 Red. masses --      1.8787                 2.2617                 3.7771
 Frc consts  --      0.0768                 0.1420                 0.2790
 IR Inten    --      8.8144                19.9940                53.0882

                     10                     11                     12
                      A                      A                      A
 Frequencies --    381.1311               391.9162               415.8510
 Red. masses --      7.4759                 5.8899                 6.8096
 Frc consts  --      0.6398                 0.5330                 0.6938
 IR Inten    --     61.0434                66.3227                 9.5988

                     13                     14                     15
                      A                      A                      A
 Frequencies --    573.5158               698.0061               800.0971
 Red. masses --      2.3135                 7.0306                 5.9649
 Frc consts  --      0.4483                 2.0182                 2.2498
 IR Inten    --     22.3685                10.7827               162.4800

                     16                     17                     18
                      A                      A                      A
 Frequencies --    854.6949               886.5640               901.6103
 Red. masses --      6.6172                 2.2528                 1.8034
 Frc consts  --      2.8481                 1.0432                 0.8637
 IR Inten    --    169.5830               121.8153               101.5886

                     19                     20                     21
                      A                      A                      A
 Frequencies --    916.2188               923.6823               987.4941
 Red. masses --      1.4074                 2.0425                 2.3781
 Frc consts  --      0.6961                 1.0267                 1.3663
 IR Inten    --     78.2030                 1.6382               339.0925

                     22                     23                     24
                      A                      A                      A
 Frequencies --   1109.9248              1141.8750              1151.1569
 Red. masses --      1.1856                 3.0870                 1.8280
 Frc consts  --      0.8605                 2.3715                 1.4273
 IR Inten    --     66.3363               115.5369                26.1090

                     25                     26                     27
                      A                      A                      A
 Frequencies --   1185.3067              1219.9481              1265.0266
 Red. masses --      3.9497                 1.6617                 1.1573
 Frc consts  --      3.2695                 1.4571                 1.0912
 IR Inten    --    604.6039               226.0123                33.8555

                     28                     29                     30
                      A                      A                      A
 Frequencies --   1289.3523              1388.0434              1401.0314
 Red. masses --      1.1734                 1.2962                 1.3306
 Frc consts  --      1.1493                 1.4714                 1.5388
 IR Inten    --     28.6094                 5.5571                19.0411

                     31                     32                     33
                      A                      A                      A
 Frequencies --   1492.6776              1497.8540              2687.0925
 Red. masses --      1.0995                 1.0888                 1.0676
 Frc consts  --      1.4434                 1.4393                 4.5418
 IR Inten    --      9.4053                 3.1954              1092.3908

                     34                     35                     36
                      A                      A                      A
 Frequencies --   2785.0456              2803.6435              2984.3937
 Red. masses --      1.0993                 1.0540                 1.0553
 Frc consts  --      5.0239                 4.8812                 5.5380
 IR Inten    --    318.7571               114.8117               149.4183

                     37                     38                     39
                      A                      A                      A
 Frequencies --   3024.7704              3971.8538              3976.3661
 Red. masses --      1.1072                 1.0654                 1.0654
 Frc consts  --      5.9684                 9.9025                 9.9254
 IR Inten    --    106.8013                33.0179                40.4201

 - Thermochemistry -
 -------------------
 Temperature   298.150 Kelvin.  Pressure   1.00000 Atm.
 Atom     1 has atomic number 14 and mass  27.97693

 Molecular mass:   139.00628 amu.
 Principal axes and moments of inertia in atomic units:
                           1         2         3
     Eigenvalues --   640.002331285.869421417.19662
           X            0.99963   0.02564   0.00933
           Y           -0.02520   0.99870  -0.04436
           Z           -0.01045   0.04410   0.99897
 This molecule is an asymmetric top.
 Rotational symmetry number  1.
 Warning -- assumption of classical behavior for rotation
           may cause significant error
 Rotational temperatures (Kelvin)      0.13533     0.06736     0.06112
 Rotational constants (GHZ):           2.81990     1.40352     1.27346
    1 imaginary frequencies ignored.
 Zero-point vibrational energy     280768.5 (Joules/Mol)
                                   67.10528 (Kcal/Mol)
 Warning -- explicit consideration of  12 degrees of freedom as
           vibrations may cause significant error
 Vibrational temperatures:    150.20   231.69   262.59   281.67   355.40
          (Kelvin)            379.07   469.66   509.42   548.36   563.88
                              598.32   825.16  1004.28  1151.16  1229.72
                             1275.57  1297.22  1318.23  1328.97  1420.78
                             1596.93  1642.90  1656.26  1705.39  1755.23
                             1820.09  1855.09  1997.08  2015.77  2147.63
                             2155.08  3866.13  4007.06  4033.82  4293.88
                             4351.97  5714.61  5721.10

 Zero-point correction=                           0.106939 (Hartree/Particle)
 Thermal correction to Energy=                    0.115750
 Thermal correction to Enthalpy=                  0.116695
 Thermal correction to Gibbs Free Energy=         0.073663
 Sum of electronic and zero-point Energies=           -746.227851
 Sum of electronic and thermal Energies=              -746.219039
 Sum of electronic and thermal Enthalpies=            -746.218095
 Sum of electronic and thermal Free Energies=         -746.261127

                     E (Thermal)             CV                S
                      KCal/Mol        Cal/Mol-Kelvin    Cal/Mol-Kelvin
 Total                   72.634             31.982             90.568
 Electronic               0.000              0.000              0.000
 Translational            0.889              2.981             40.700
 Rotational               0.889              2.981             28.546
 Vibrational             70.857             26.020             21.322
 Vibration     1          0.605              1.946              3.371
 Vibration     2          0.622              1.890              2.538
 Vibration     3          0.630              1.864              2.303
 Vibration     4          0.636              1.846              2.172
 Vibration     5          0.661              1.768              1.752
 Vibration     6          0.670              1.740              1.639
 Vibration     7          0.710              1.623              1.278
 Vibration     8          0.730              1.567              1.148
 Vibration     9          0.751              1.510              1.035
 Vibration    10          0.759              1.487              0.993
 Vibration    11          0.779              1.436              0.906
 Vibration    12          0.930              1.089              0.498

 Optimization completed.
    -- Stationary point found.
 Normal termination of Gaussian 16 at Thu Feb 15 09:34:30 2024.
